
     Program PWSCF v.7.2 starts on 15Jan2025 at  8:46:55 

     This program is part of the open-source Quantum ESPRESSO suite
     for quantum simulation of materials; please cite
         "P. Giannozzi et al., J. Phys.:Condens. Matter 21 395502 (2009);
         "P. Giannozzi et al., J. Phys.:Condens. Matter 29 465901 (2017);
         "P. Giannozzi et al., J. Chem. Phys. 152 154105 (2020);
          URL http://www.quantum-espresso.org", 
     in publications or presentations arising from this work. More details at
     http://www.quantum-espresso.org/quote

     Parallel version (MPI & OpenMP), running on      64 processor cores
     Number of MPI processes:                32
     Threads/MPI process:                     2

     MPI processes distributed on     1 nodes
     241968 MiB available memory on the printing compute node when the environment starts

     Waiting for input...
     Reading input from standard input

     Current dimensions of program PWSCF are:
     Max number of different atomic species (ntypx) = 10
     Max number of k-points (npk) =  40000
     Max angular momentum in pseudopotentials (lmaxx) =  4

     K-points division:     npool     =       2
     R & G space division:  proc/nbgrp/npool/nimage =      16
     Subspace diagonalization in iterative solution of the eigenvalue problem:
     a serial algorithm will be used


     Parallelization info
     --------------------
     sticks:   dense  smooth     PW     G-vecs:    dense   smooth      PW
     Min         125      94     27                 3697     2404     363
     Max         127      95     28                 3700     2407     366
     Sum        2017    1507    433                59181    38469    5829

     Using Slab Decomposition



     bravais-lattice index     =            0
     lattice parameter (alat)  =      11.0289  a.u.
     unit-cell volume          =     943.4440 (a.u.)^3
     number of atoms/cell      =            8
     number of atomic types    =            2
     number of electrons       =       122.00
     number of Kohn-Sham states=           73
     kinetic-energy cutoff     =      45.0000  Ry
     charge density cutoff     =     240.0000  Ry
     scf convergence threshold =      1.6E-09
     mixing beta               =       0.4000
     number of iterations used =            8  plain     mixing
     energy convergence thresh.=      0.0E+00
     force convergence thresh. =      0.0E+00
     press convergence thresh. =      0.0E+00
     Exchange-correlation= PBESOL
                           (   1   4  10   8   0   0   0)
     nstep                     =          100


     celldm(1)=  11.028949  celldm(2)=   0.000000  celldm(3)=   0.000000
     celldm(4)=   0.000000  celldm(5)=   0.000000  celldm(6)=   0.000000

     crystal axes: (cart. coord. in units of alat)
               a(1) = (   1.000000   0.000000   0.000000 )  
               a(2) = (  -0.500000   0.866025   0.000000 )  
               a(3) = (   0.000000   0.000000   0.812051 )  

     reciprocal axes: (cart. coord. in units 2 pi/alat)
               b(1) = (  1.000000  0.577350 -0.000000 )  
               b(2) = (  0.000000  1.154701  0.000000 )  
               b(3) = (  0.000000 -0.000000  1.231450 )  


     PseudoPot. # 1 for Au read from file:
     ./pseudo/Au_ONCV_PBEsol-1.0.upf
     MD5 check sum: 107326c382cdbc7cf544f5ac04d81467
     Pseudo is Norm-conserving, Zval = 19.0
     Generated using ONCVPSP code by D. R. Hamann
     Using radial grid of 1262 points,  8 beta functions with: 
                l(1) =   0
                l(2) =   0
                l(3) =   1
                l(4) =   1
                l(5) =   2
                l(6) =   2
                l(7) =   3
                l(8) =   3

     PseudoPot. # 2 for Si read from file:
     ./pseudo/Si.pbesol-n-rrkjus_psl.1.0.0.UPF
     MD5 check sum: c4212819de858c94c3a1644338846ac9
     Pseudo is Ultrasoft + core correction, Zval =  4.0
     Generated using "atomic" code by A. Dal Corso  v.6.0 svn rev. 13079
     Using radial grid of 1141 points,  6 beta functions with: 
                l(1) =   0
                l(2) =   0
                l(3) =   1
                l(4) =   1
                l(5) =   2
                l(6) =   2
     Q(r) pseudized with 0 coefficients 


     atomic species   valence    mass     pseudopotential
        Au            19.00   196.96657     Au( 1.00)
        Si             4.00    28.08550     Si( 1.00)

      cell mass =  94.07447 AMU 

     No symmetry found



   Cartesian axes

     site n.     atom                  positions (alat units)
         1           Si  tau(   1) = (   0.5000000   0.2886751   0.2030127  )
         2           Si  tau(   2) = (  -0.0000000   0.5773503   0.6090381  )
         3           Au  tau(   3) = (   0.2524331   0.1457423   0.6090381  )
         4           Au  tau(   4) = (   0.7475669   0.1457423   0.6090381  )
         5           Au  tau(   5) = (   0.5000000   0.5745408   0.6090381  )
         6           Au  tau(   6) = (   0.2475669   0.7202831   0.2030127  )
         7           Au  tau(   7) = (  -0.2475669   0.7202831   0.2030127  )
         8           Au  tau(   8) = (  -0.0000000   0.2914847   0.2030127  )

     number of k points=    14  Marzari-Vanderbilt smearing, width (Ry)=  0.0200
                       cart. coord. in units 2pi/alat
        k(    1) = (   0.0000000   0.0000000   0.0000000), wk =   0.0740741
        k(    2) = (   0.0000000   0.0000000   0.4104834), wk =   0.1481481
        k(    3) = (   0.0000000   0.3849002   0.0000000), wk =   0.1481481
        k(    4) = (   0.0000000   0.3849002   0.4104834), wk =   0.1481481
        k(    5) = (   0.0000000   0.3849002  -0.4104834), wk =   0.1481481
        k(    6) = (   0.3333333   0.1924501   0.0000000), wk =   0.1481481
        k(    7) = (   0.3333333   0.1924501   0.4104834), wk =   0.1481481
        k(    8) = (   0.3333333   0.1924501  -0.4104834), wk =   0.1481481
        k(    9) = (   0.3333333   0.5773503   0.0000000), wk =   0.1481481
        k(   10) = (   0.3333333   0.5773503   0.4104834), wk =   0.1481481
        k(   11) = (   0.3333333   0.5773503  -0.4104834), wk =   0.1481481
        k(   12) = (   0.3333333  -0.1924501   0.0000000), wk =   0.1481481
        k(   13) = (   0.3333333  -0.1924501   0.4104834), wk =   0.1481481
        k(   14) = (   0.3333333  -0.1924501  -0.4104834), wk =   0.1481481

     Dense  grid:    59181 G-vectors     FFT dimensions: (  60,  60,  45)

     Smooth grid:    38469 G-vectors     FFT dimensions: (  48,  48,  40)

     Estimated max dynamical RAM per process >      24.40 MB

     Estimated total dynamical RAM >     766.50 MB

     Initial potential from superposition of free atoms

     starting charge     121.9984, renormalised to     122.0000
     Starting wfcs are   68 randomized atomic wfcs +    5 random wfcs

     total cpu time spent up to now is        1.1 secs

     per-process dynamical memory:    27.1 Mb

     Self-consistent Calculation

     iteration #  1     ecut=    45.00 Ry     beta= 0.40
     Davidson diagonalization with overlap
     ethr =  1.00E-02,  avg # of iterations =  3.1

     Threshold (ethr) on eigenvalues was too large:
     Diagonalizing with lowered threshold

     Davidson diagonalization with overlap
     ethr =  3.23E-05,  avg # of iterations =  4.1

     total cpu time spent up to now is        2.3 secs

     total energy              =   -1671.02625317 Ry
     estimated scf accuracy    <       0.03610123 Ry

     iteration #  2     ecut=    45.00 Ry     beta= 0.40
     Davidson diagonalization with overlap
     ethr =  2.96E-05,  avg # of iterations =  2.0

     total cpu time spent up to now is        2.8 secs

     total energy              =   -1671.03207687 Ry
     estimated scf accuracy    <       0.00654393 Ry

     iteration #  3     ecut=    45.00 Ry     beta= 0.40
     Davidson diagonalization with overlap
     ethr =  5.36E-06,  avg # of iterations =  2.0

     total cpu time spent up to now is        3.3 secs

     total energy              =   -1671.03260678 Ry
     estimated scf accuracy    <       0.00165264 Ry

     iteration #  4     ecut=    45.00 Ry     beta= 0.40
     Davidson diagonalization with overlap
     ethr =  1.35E-06,  avg # of iterations =  2.0

     total cpu time spent up to now is        3.8 secs

     total energy              =   -1671.03271293 Ry
     estimated scf accuracy    <       0.00020800 Ry

     iteration #  5     ecut=    45.00 Ry     beta= 0.40
     Davidson diagonalization with overlap
     ethr =  1.70E-07,  avg # of iterations =  1.5

     total cpu time spent up to now is        4.2 secs

     total energy              =   -1671.03271856 Ry
     estimated scf accuracy    <       0.00001757 Ry

     iteration #  6     ecut=    45.00 Ry     beta= 0.40
     Davidson diagonalization with overlap
     ethr =  1.44E-08,  avg # of iterations =  2.0

     total cpu time spent up to now is        4.8 secs

     total energy              =   -1671.03272022 Ry
     estimated scf accuracy    <       0.00000180 Ry

     iteration #  7     ecut=    45.00 Ry     beta= 0.40
     Davidson diagonalization with overlap
     ethr =  1.48E-09,  avg # of iterations =  2.0

     total cpu time spent up to now is        5.3 secs

     total energy              =   -1671.03272070 Ry
     estimated scf accuracy    <       0.00000067 Ry

     iteration #  8     ecut=    45.00 Ry     beta= 0.40
     Davidson diagonalization with overlap
     ethr =  5.51E-10,  avg # of iterations =  2.0

     total cpu time spent up to now is        5.9 secs

     total energy              =   -1671.03272080 Ry
     estimated scf accuracy    <       0.00000002 Ry

     iteration #  9     ecut=    45.00 Ry     beta= 0.40
     Davidson diagonalization with overlap
     ethr =  1.52E-11,  avg # of iterations =  3.1

     total cpu time spent up to now is        6.5 secs

     total energy              =   -1671.03272081 Ry
     estimated scf accuracy    <          5.7E-09 Ry

     iteration # 10     ecut=    45.00 Ry     beta= 0.40
     Davidson diagonalization with overlap
     ethr =  4.69E-12,  avg # of iterations =  1.4

     total cpu time spent up to now is        7.0 secs

     total energy              =   -1671.03272080 Ry
     estimated scf accuracy    <          3.1E-09 Ry

     iteration # 11     ecut=    45.00 Ry     beta= 0.40
     Davidson diagonalization with overlap
     ethr =  2.54E-12,  avg # of iterations =  2.0

     total cpu time spent up to now is        7.5 secs

     End of self-consistent calculation

          k = 0.0000 0.0000 0.0000 (  4825 PWs)   bands (ev):

   -88.8674 -88.8608 -88.8607 -88.8607 -88.8574 -88.8574 -40.1978 -40.1712
   -40.1712 -40.1704 -40.1679 -40.1606 -40.1606 -40.1279 -40.1228 -40.1228
   -40.0817 -40.0602 -40.0602 -40.0545 -40.0545 -40.0536 -40.0536 -40.0407
     6.0557   8.2960  10.3829  10.4054  10.4354  10.5683  10.5683  10.8773
    10.8773  11.5147  11.5147  12.0450  12.1557  12.1557  12.2138  12.4244
    12.4244  12.4650  12.6295  12.6295  13.4000  13.4000  13.5288  13.5288
    13.8864  13.8864  13.9795  13.9795  14.3257  14.5812  14.8064  14.8846
    14.9276  15.0232  15.9190  15.9190  16.7773  16.7773  17.2562  19.3398
    19.3584  19.5296  19.5296  21.8421  22.5152  22.5152  22.5553  22.5553
    24.7750

          k = 0.0000 0.0000 0.4105 (  4825 PWs)   bands (ev):

   -88.8658 -88.8624 -88.8599 -88.8599 -88.8583 -88.8583 -40.1949 -40.1869
   -40.1838 -40.1838 -40.1748 -40.1748 -40.1266 -40.1164 -40.0933 -40.0909
   -40.0909 -40.0687 -40.0639 -40.0639 -40.0552 -40.0552 -40.0541 -40.0541
     6.8184   8.0379   9.8175   9.8766  10.6252  10.6252  10.9900  10.9900
    11.3491  11.3491  11.3603  11.4468  11.6721  11.6721  12.3189  12.7510
    13.0545  13.0545  13.0996  13.2168  13.2168  13.2770  13.2770  13.7200
    13.7200  13.8903  13.8903  14.0419  14.4935  14.4935  14.9066  14.9079
    14.9842  15.0084  15.0084  15.4194  16.2507  16.2507  16.5675  19.1065
    19.2211  19.2211  19.5371  19.5371  21.5295  23.2401  23.8284  23.8284
    26.0542

          k = 0.0000 0.3849 0.0000 (  4826 PWs)   bands (ev):

   -88.8660 -88.8624 -88.8607 -88.8601 -88.8578 -88.8574 -40.1790 -40.1677
   -40.1631 -40.1623 -40.1568 -40.1422 -40.1392 -40.1322 -40.1277 -40.1230
   -40.0969 -40.0875 -40.0785 -40.0650 -40.0623 -40.0600 -40.0539 -40.0357
     6.7353   8.2103   9.6937  10.3898  10.7106  10.7689  10.9660  11.0946
    11.2045  11.3908  11.5013  11.6543  11.9644  11.9950  12.0669  12.3077
    12.3575  12.5582  12.5981  12.6621  12.7737  13.0951  13.2296  13.5574
    13.6383  13.6990  13.7416  13.7770  13.9600  14.0675  14.2090  14.7480
    14.7842  15.8610  16.3067  16.5003  16.8605  18.0672  18.4018  18.8864
    19.7410  19.8785  20.5180  20.7141  21.7725  21.9680  21.9822  23.7274
    23.8684

          k = 0.0000 0.3849 0.4105 (  4813 PWs)   bands (ev):

   -88.8645 -88.8621 -88.8608 -88.8599 -88.8591 -88.8583 -40.1863 -40.1792
   -40.1692 -40.1631 -40.1578 -40.1564 -40.1336 -40.1234 -40.1114 -40.1006
   -40.0860 -40.0849 -40.0824 -40.0639 -40.0630 -40.0590 -40.0586 -40.0544
     7.4255   8.3129   9.7912  10.0934  10.6560  10.7183  11.0108  11.1171
    11.4199  11.4267  11.5520  11.6096  11.6651  11.8828  12.0703  12.1535
    12.2776  12.6581  12.6769  12.8916  13.0115  13.1634  13.2085  13.4050
    13.4750  13.4874  13.7403  13.8800  13.9547  14.0321  14.2757  14.3447
    14.6364  14.9453  15.4446  15.9947  16.5949  16.9260  17.8691  19.6167
    19.6799  20.4864  20.8717  21.6300  21.8995  23.0468  23.4573  23.9384
    24.5964

          k = 0.0000 0.3849-0.4105 (  4813 PWs)   bands (ev):

   -88.8645 -88.8621 -88.8608 -88.8599 -88.8591 -88.8583 -40.1863 -40.1792
   -40.1692 -40.1631 -40.1578 -40.1564 -40.1336 -40.1234 -40.1114 -40.1006
   -40.0860 -40.0849 -40.0824 -40.0639 -40.0630 -40.0590 -40.0586 -40.0544
     7.4255   8.3129   9.7912  10.0933  10.6560  10.7183  11.0108  11.1171
    11.4199  11.4267  11.5520  11.6096  11.6651  11.8828  12.0703  12.1535
    12.2776  12.6581  12.6769  12.8916  13.0115  13.1634  13.2085  13.4050
    13.4750  13.4874  13.7403  13.8800  13.9547  14.0321  14.2757  14.3447
    14.6364  14.9453  15.4446  15.9947  16.5949  16.9260  17.8691  19.6167
    19.6799  20.4864  20.8717  21.6300  21.8995  23.0468  23.4573  23.9384
    24.5960

          k = 0.3333 0.1925 0.0000 (  4826 PWs)   bands (ev):

   -88.8660 -88.8624 -88.8607 -88.8601 -88.8578 -88.8574 -40.1790 -40.1677
   -40.1631 -40.1623 -40.1568 -40.1422 -40.1392 -40.1322 -40.1277 -40.1230
   -40.0969 -40.0875 -40.0785 -40.0650 -40.0623 -40.0600 -40.0539 -40.0357
     6.7353   8.2103   9.6937  10.3898  10.7106  10.7689  10.9660  11.0946
    11.2045  11.3908  11.5013  11.6543  11.9644  11.9950  12.0669  12.3077
    12.3575  12.5582  12.5981  12.6621  12.7737  13.0951  13.2295  13.5574
    13.6383  13.6990  13.7416  13.7770  13.9600  14.0675  14.2090  14.7480
    14.7842  15.8610  16.3067  16.5003  16.8605  18.0672  18.4019  18.8864
    19.7410  19.8785  20.5180  20.7141  21.7725  21.9680  21.9822  23.7274
    23.8684

          k = 0.3333 0.1925 0.4105 (  4813 PWs)   bands (ev):

   -88.8645 -88.8621 -88.8608 -88.8599 -88.8591 -88.8583 -40.1863 -40.1792
   -40.1692 -40.1631 -40.1578 -40.1564 -40.1336 -40.1234 -40.1114 -40.1006
   -40.0860 -40.0849 -40.0825 -40.0639 -40.0629 -40.0590 -40.0586 -40.0544
     7.4255   8.3129   9.7912  10.0933  10.6560  10.7183  11.0108  11.1171
    11.4200  11.4267  11.5520  11.6096  11.6651  11.8828  12.0703  12.1535
    12.2776  12.6581  12.6769  12.8916  13.0115  13.1634  13.2085  13.4050
    13.4750  13.4874  13.7404  13.8800  13.9547  14.0321  14.2757  14.3447
    14.6364  14.9453  15.4446  15.9947  16.5949  16.9260  17.8691  19.6167
    19.6799  20.4864  20.8717  21.6300  21.8995  23.0468  23.4573  23.9384
    24.5960

          k = 0.3333 0.1925-0.4105 (  4813 PWs)   bands (ev):

   -88.8645 -88.8621 -88.8608 -88.8599 -88.8591 -88.8583 -40.1863 -40.1792
   -40.1692 -40.1631 -40.1578 -40.1564 -40.1336 -40.1234 -40.1114 -40.1006
   -40.0860 -40.0849 -40.0825 -40.0639 -40.0629 -40.0590 -40.0586 -40.0544
     7.4255   8.3129   9.7912  10.0934  10.6560  10.7183  11.0108  11.1171
    11.4200  11.4267  11.5520  11.6096  11.6651  11.8828  12.0703  12.1535
    12.2776  12.6581  12.6769  12.8916  13.0115  13.1634  13.2085  13.4050
    13.4750  13.4874  13.7404  13.8800  13.9547  14.0321  14.2757  14.3447
    14.6364  14.9453  15.4446  15.9947  16.5949  16.9260  17.8691  19.6167
    19.6799  20.4864  20.8717  21.6300  21.8995  23.0468  23.4573  23.9384
    24.5968

          k = 0.3333 0.5774 0.0000 (  4800 PWs)   bands (ev):

   -88.8645 -88.8627 -88.8627 -88.8583 -88.8583 -88.8579 -40.1662 -40.1602
   -40.1572 -40.1572 -40.1461 -40.1461 -40.1270 -40.1270 -40.1256 -40.1213
   -40.1097 -40.1097 -40.0874 -40.0662 -40.0662 -40.0633 -40.0633 -40.0337
     7.6913   7.6913   9.0260  10.5871  10.5871  10.9336  11.2012  11.3704
    11.3704  11.5528  11.5573  11.5574  11.6739  11.8738  11.8738  12.2230
    12.2230  12.3315  12.5530  12.8254  12.8254  13.0757  13.0758  13.4723
    13.6681  13.6681  13.7295  13.8278  13.8278  13.8333  14.1758  14.1758
    14.7167  16.0767  16.0767  17.8417  17.8417  17.9486  18.3463  18.3463
    18.7679  19.3634  20.8872  21.4643  21.4643  23.3956  23.3956  23.5325
    23.5326

          k = 0.3333 0.5774 0.4105 (  4818 PWs)   bands (ev):

   -88.8629 -88.8622 -88.8622 -88.8595 -88.8589 -88.8589 -40.1718 -40.1718
   -40.1582 -40.1582 -40.1574 -40.1491 -40.1234 -40.1196 -40.1190 -40.1190
   -40.0955 -40.0955 -40.0879 -40.0672 -40.0671 -40.0579 -40.0579 -40.0575
     8.1638   8.1638   9.8516  10.1327  10.1327  11.0014  11.2007  11.3350
    11.3350  11.4504  11.5483  11.5483  11.7218  11.7218  12.1034  12.1091
    12.1091  12.1901  12.6254  12.7069  12.7069  13.0731  13.0731  13.2736
    13.3920  13.5725  13.7199  13.7199  13.9454  13.9454  14.1817  14.4382
    14.4382  15.0879  15.2815  15.2815  17.4316  17.4316  19.1244  19.4274
    19.4274  20.5447  21.4451  21.4451  23.1938  23.6364  23.6364  23.8981
    24.8015

          k = 0.3333 0.5774-0.4105 (  4818 PWs)   bands (ev):

   -88.8629 -88.8622 -88.8622 -88.8595 -88.8589 -88.8589 -40.1718 -40.1718
   -40.1582 -40.1582 -40.1574 -40.1491 -40.1234 -40.1196 -40.1190 -40.1190
   -40.0955 -40.0955 -40.0879 -40.0672 -40.0671 -40.0579 -40.0579 -40.0575
     8.1638   8.1638   9.8516  10.1327  10.1327  11.0014  11.2007  11.3350
    11.3350  11.4504  11.5483  11.5483  11.7218  11.7218  12.1034  12.1091
    12.1091  12.1901  12.6254  12.7069  12.7069  13.0731  13.0731  13.2736
    13.3920  13.5725  13.7199  13.7199  13.9454  13.9454  14.1817  14.4382
    14.4382  15.0879  15.2815  15.2815  17.4316  17.4316  19.1244  19.4274
    19.4274  20.5447  21.4451  21.4451  23.1938  23.6364  23.6364  23.8981
    24.8015

          k = 0.3333-0.1925 0.0000 (  4826 PWs)   bands (ev):

   -88.8660 -88.8624 -88.8607 -88.8601 -88.8578 -88.8574 -40.1790 -40.1677
   -40.1631 -40.1623 -40.1568 -40.1422 -40.1392 -40.1322 -40.1277 -40.1230
   -40.0969 -40.0875 -40.0785 -40.0650 -40.0623 -40.0600 -40.0539 -40.0357
     6.7353   8.2103   9.6937  10.3898  10.7106  10.7689  10.9660  11.0946
    11.2045  11.3908  11.5013  11.6543  11.9644  11.9950  12.0669  12.3077
    12.3575  12.5582  12.5981  12.6621  12.7737  13.0951  13.2295  13.5574
    13.6383  13.6990  13.7416  13.7770  13.9600  14.0675  14.2090  14.7480
    14.7842  15.8610  16.3067  16.5003  16.8605  18.0672  18.4019  18.8864
    19.7410  19.8785  20.5180  20.7141  21.7725  21.9680  21.9822  23.7274
    23.8684

          k = 0.3333-0.1925 0.4105 (  4813 PWs)   bands (ev):

   -88.8645 -88.8621 -88.8608 -88.8599 -88.8591 -88.8583 -40.1863 -40.1792
   -40.1692 -40.1631 -40.1578 -40.1564 -40.1336 -40.1234 -40.1114 -40.1006
   -40.0860 -40.0849 -40.0825 -40.0639 -40.0629 -40.0590 -40.0586 -40.0544
     7.4255   8.3129   9.7912  10.0934  10.6560  10.7183  11.0108  11.1171
    11.4200  11.4267  11.5520  11.6096  11.6651  11.8828  12.0703  12.1535
    12.2776  12.6581  12.6769  12.8916  13.0115  13.1634  13.2085  13.4050
    13.4750  13.4874  13.7404  13.8800  13.9547  14.0321  14.2757  14.3447
    14.6364  14.9453  15.4446  15.9947  16.5949  16.9260  17.8691  19.6167
    19.6799  20.4864  20.8717  21.6300  21.8995  23.0468  23.4573  23.9384
    24.5964

          k = 0.3333-0.1925-0.4105 (  4813 PWs)   bands (ev):

   -88.8645 -88.8621 -88.8608 -88.8599 -88.8591 -88.8583 -40.1863 -40.1792
   -40.1692 -40.1631 -40.1578 -40.1564 -40.1336 -40.1234 -40.1114 -40.1006
   -40.0860 -40.0849 -40.0825 -40.0639 -40.0629 -40.0590 -40.0586 -40.0544
     7.4255   8.3129   9.7912  10.0933  10.6560  10.7183  11.0108  11.1171
    11.4200  11.4267  11.5520  11.6096  11.6651  11.8828  12.0703  12.1535
    12.2776  12.6581  12.6769  12.8916  13.0115  13.1634  13.2085  13.4050
    13.4750  13.4874  13.7404  13.8800  13.9547  14.0321  14.2757  14.3447
    14.6364  14.9453  15.4446  15.9947  16.5949  16.9260  17.8691  19.6167
    19.6799  20.4864  20.8717  21.6300  21.8995  23.0468  23.4573  23.9384
    24.5962

     the Fermi energy is    16.9159 ev

!    total energy              =   -1671.03272080 Ry
     estimated scf accuracy    <          1.1E-10 Ry
     smearing contrib. (-TS)   =       0.00072670 Ry
     internal energy E=F+TS    =   -1671.03344751 Ry

     convergence has been achieved in  11 iterations

     Forces acting on atoms (cartesian axes, Ry/au):

     atom    1 type  2   force =     0.00000005   -0.00000007    0.00004416
     atom    2 type  2   force =     0.00000004    0.00000007   -0.00004415
     atom    3 type  1   force =    -0.00000808   -0.00000445    0.00000135
     atom    4 type  1   force =     0.00000777   -0.00000418    0.00000133
     atom    5 type  1   force =    -0.00000000    0.00000974    0.00000134
     atom    6 type  1   force =     0.00000760    0.00000397   -0.00000136
     atom    7 type  1   force =    -0.00000748    0.00000410   -0.00000135
     atom    8 type  1   force =     0.00000011   -0.00000916   -0.00000132
     The non-local contrib.  to forces
     atom    1 type  2   force =    -0.00000001    0.00000017    0.00001426
     atom    2 type  2   force =     0.00000000   -0.00000020   -0.00001426
     atom    3 type  1   force =     0.00813505    0.00469647    0.00000173
     atom    4 type  1   force =    -0.00813526    0.00469655    0.00000171
     atom    5 type  1   force =     0.00000000   -0.00939304    0.00000171
     atom    6 type  1   force =    -0.00813547   -0.00469661   -0.00000174
     atom    7 type  1   force =     0.00813546   -0.00469666   -0.00000172
     atom    8 type  1   force =    -0.00000003    0.00939339   -0.00000170
     The ionic contribution  to forces
     atom    1 type  2   force =    -0.00000025    0.00000014    0.00000000
     atom    2 type  2   force =     0.00000025   -0.00000014    0.00000000
     atom    3 type  1   force =     8.89478480    5.13540672   -0.00000000
     atom    4 type  1   force =    -8.89478480    5.13540640   -0.00000000
     atom    5 type  1   force =    -0.00000027  -10.27081296   -0.00000000
     atom    6 type  1   force =    -8.89478480   -5.13540672    0.00000000
     atom    7 type  1   force =     8.89478480   -5.13540640    0.00000000
     atom    8 type  1   force =     0.00000027   10.27081296    0.00000000
     The local contribution  to forces
     atom    1 type  2   force =     0.00000034   -0.00000128   -0.00001715
     atom    2 type  2   force =    -0.00000033    0.00000140    0.00001716
     atom    3 type  1   force =    -8.90297140   -5.14014093    0.00000078
     atom    4 type  1   force =     8.90297004   -5.14013968    0.00000078
     atom    5 type  1   force =     0.00000077   10.28027501    0.00000091
     atom    6 type  1   force =     8.90296759    5.14013963   -0.00000091
     atom    7 type  1   force =    -8.90296791    5.14013831   -0.00000085
     atom    8 type  1   force =    -0.00000097  -10.28027206   -0.00000067
     The core correction contribution to forces
     atom    1 type  2   force =     0.00000000   -0.00000003    0.00004691
     atom    2 type  2   force =    -0.00000000    0.00000003   -0.00004691
     atom    3 type  1   force =     0.00000000    0.00000000    0.00000000
     atom    4 type  1   force =     0.00000000    0.00000000    0.00000000
     atom    5 type  1   force =     0.00000000    0.00000000    0.00000000
     atom    6 type  1   force =     0.00000000    0.00000000    0.00000000
     atom    7 type  1   force =     0.00000000    0.00000000    0.00000000
     atom    8 type  1   force =     0.00000000    0.00000000    0.00000000
     The Hubbard contrib.    to forces
     atom    1 type  2   force =     0.00000000    0.00000000    0.00000000
     atom    2 type  2   force =     0.00000000    0.00000000    0.00000000
     atom    3 type  1   force =     0.00000000    0.00000000    0.00000000
     atom    4 type  1   force =     0.00000000    0.00000000    0.00000000
     atom    5 type  1   force =     0.00000000    0.00000000    0.00000000
     atom    6 type  1   force =     0.00000000    0.00000000    0.00000000
     atom    7 type  1   force =     0.00000000    0.00000000    0.00000000
     atom    8 type  1   force =     0.00000000    0.00000000    0.00000000
     The SCF correction term to forces
     atom    1 type  2   force =    -0.00000008    0.00000091    0.00000014
     atom    2 type  2   force =     0.00000007   -0.00000103   -0.00000014
     atom    3 type  1   force =     0.00004342    0.00003328   -0.00000116
     atom    4 type  1   force =    -0.00004225    0.00003254   -0.00000117
     atom    5 type  1   force =    -0.00000054   -0.00005928   -0.00000128
     atom    6 type  1   force =    -0.00003977   -0.00003234    0.00000129
     atom    7 type  1   force =     0.00004012   -0.00003116    0.00000122
     atom    8 type  1   force =     0.00000079    0.00005654    0.00000105

     Total force =     0.000066     Total SCF correction =     0.000133
     SCF correction compared to forces is large: reduce conv_thr to get better values


     Computing stress (Cartesian axis) and pressure

          total   stress  (Ry/bohr**3)                   (kbar)     P=      -74.64
  -0.00065227   0.00000000   0.00000000          -95.95        0.00        0.00
   0.00000000  -0.00065227   0.00000000            0.00      -95.95        0.00
   0.00000000   0.00000000  -0.00021769            0.00        0.00      -32.02


     Entering Dynamics;  it =     1   time =  0.00000 pico-seconds

  new lattice vectors (alat unit) :
   0.999987889  -0.000008217   0.000000576
  -0.500001061   0.866007853   0.000000637
   0.000000468   0.000000867   0.812046879
  new unit-cell volume =    943.4045 (a.u.)^3
  new positions in cryst coord
Si       0.666488926   0.333616063   0.251127128
Si       0.333511074   0.666383937   0.748872872
Au       0.335329489   0.168376757   0.749402202
Au       0.831566792   0.168170778   0.750949993
Au       0.831817704   0.662690479   0.749254203
Au       0.663274790   0.832012074   0.250194895
Au       0.169024051   0.832081990   0.250271345
Au       0.168987174   0.336667924   0.249927362
  new positions in cart coord (alat unit)
Si       0.499672587   0.288908871   0.203927597
Si       0.000314709   0.577091632   0.608120495
Au       0.251137222   0.145813488   0.608550020
Au       0.747471505   0.145631032   0.609807184
Au       0.500462038   0.573888973   0.608430439
Au       0.247259955   0.720523756   0.203170895
Au      -0.247019756   0.720588366   0.203232692
Au       0.000650926   0.291555894   0.202953046

     Ekin =     0.13300609 Ry    T =    0.0 K  Etot =    -1670.89971472
     new unit-cell volume =    943.40452 a.u.^3 (   139.79813 Ang^3 )
     density =     14.70476 g/cm^3

CELL_PARAMETERS (angstrom)
   5.836197598  -0.000047958   0.000003363
  -2.918140332   5.054254164   0.000003715
   0.000002731   0.000005060   4.739323444

ATOMIC_POSITIONS (crystal)
Si            0.6664889264        0.3336160627        0.2511271276
Si            0.3335110736        0.6663839372        0.7488728724
Au            0.3353294892        0.1683767570        0.7494022022
Au            0.8315667915        0.1681707776        0.7509499927
Au            0.8318177037        0.6626904785        0.7492542033
Au            0.6632747899        0.8320120736        0.2501948946
Au            0.1690240513        0.8320819895        0.2502713453
Au            0.1689871743        0.3366679238        0.2499273619



     Writing config-only to output data dir ./out/siau_relax.save/
     NEW-OLD atomic charge density approx. for the potential
     extrapolated charge  121.99489, renormalised to  122.00000

     total cpu time spent up to now is        8.5 secs

     per-process dynamical memory:    33.1 Mb

     Self-consistent Calculation

     iteration #  1     ecut=    45.00 Ry     beta= 0.40
     Davidson diagonalization with overlap
     ethr =  1.00E-06,  avg # of iterations =  5.2

     Threshold (ethr) on eigenvalues was too large:
     Diagonalizing with lowered threshold

     Davidson diagonalization with overlap
     ethr =  1.66E-08,  avg # of iterations =  2.0

     total cpu time spent up to now is       10.0 secs

     total energy              =   -1671.03271922 Ry
     estimated scf accuracy    <       0.00002042 Ry

     iteration #  2     ecut=    45.00 Ry     beta= 0.40
     Davidson diagonalization with overlap
     ethr =  1.67E-08,  avg # of iterations =  2.1

     total cpu time spent up to now is       10.6 secs

     total energy              =   -1671.03272409 Ry
     estimated scf accuracy    <       0.00000929 Ry

     iteration #  3     ecut=    45.00 Ry     beta= 0.40
     Davidson diagonalization with overlap
     ethr =  7.61E-09,  avg # of iterations =  2.1

     total cpu time spent up to now is       11.1 secs

     total energy              =   -1671.03272500 Ry
     estimated scf accuracy    <       0.00000097 Ry

     iteration #  4     ecut=    45.00 Ry     beta= 0.40
     Davidson diagonalization with overlap
     ethr =  7.97E-10,  avg # of iterations =  2.0

     total cpu time spent up to now is       11.6 secs

     total energy              =   -1671.03272510 Ry
     estimated scf accuracy    <       0.00000022 Ry

     iteration #  5     ecut=    45.00 Ry     beta= 0.40
     Davidson diagonalization with overlap
     ethr =  1.79E-10,  avg # of iterations =  2.9

     total cpu time spent up to now is       12.2 secs

     total energy              =   -1671.03272510 Ry
     estimated scf accuracy    <       0.00000007 Ry

     iteration #  6     ecut=    45.00 Ry     beta= 0.40
     Davidson diagonalization with overlap
     ethr =  5.44E-11,  avg # of iterations =  2.0

     total cpu time spent up to now is       12.7 secs

     total energy              =   -1671.03272511 Ry
     estimated scf accuracy    <          8.5E-09 Ry

     iteration #  7     ecut=    45.00 Ry     beta= 0.40
     Davidson diagonalization with overlap
     ethr =  6.96E-12,  avg # of iterations =  2.0

     total cpu time spent up to now is       13.2 secs

     End of self-consistent calculation

          k = 0.0000 0.0000 0.0000 (  4825 PWs)   bands (ev):

   -88.8668 -88.8614 -88.8596 -88.8590 -88.8571 -88.8557 -40.1971 -40.1711
   -40.1698 -40.1697 -40.1671 -40.1602 -40.1593 -40.1271 -40.1228 -40.1211
   -40.0809 -40.0606 -40.0586 -40.0544 -40.0532 -40.0530 -40.0520 -40.0398
     6.0561   8.2964  10.3832  10.4061  10.4359  10.5643  10.5736  10.8770
    10.8788  11.5136  11.5168  12.0451  12.1523  12.1605  12.2147  12.4222
    12.4278  12.4664  12.6288  12.6316  13.3990  13.4024  13.5293  13.5299
    13.8839  13.8903  13.9767  13.9844  14.3261  14.5826  14.8075  14.8856
    14.9283  15.0242  15.9177  15.9222  16.7761  16.7810  17.2569  19.3411
    19.3592  19.5254  19.5360  21.8432  22.5067  22.5249  22.5521  22.5614
    24.7692

          k =-0.0000-0.0000 0.4105 (  4825 PWs)   bands (ev):

   -88.8652 -88.8620 -88.8596 -88.8585 -88.8578 -88.8564 -40.1943 -40.1861
   -40.1834 -40.1827 -40.1744 -40.1737 -40.1258 -40.1155 -40.0925 -40.0908
   -40.0895 -40.0678 -40.0640 -40.0624 -40.0551 -40.0539 -40.0535 -40.0525
     6.8188   8.0384   9.8174   9.8776  10.6256  10.6261  10.9877  10.9934
    11.3481  11.3512  11.3610  11.4478  11.6713  11.6743  12.3194  12.7518
    13.0546  13.0548  13.1006  13.2149  13.2206  13.2751  13.2807  13.7196
    13.7220  13.8884  13.8937  14.0427  14.4894  14.4991  14.9065  14.9097
    14.9847  15.0062  15.0128  15.4206  16.2486  16.2548  16.5689  19.1075
    19.2194  19.2251  19.5351  19.5414  21.5306  23.2412  23.8270  23.8322
    26.0569

          k = 0.0000 0.3849-0.0000 (  4826 PWs)   bands (ev):

   -88.8653 -88.8622 -88.8600 -88.8593 -88.8572 -88.8557 -40.1777 -40.1665
   -40.1625 -40.1617 -40.1556 -40.1425 -40.1386 -40.1311 -40.1276 -40.1214
   -40.0960 -40.0875 -40.0783 -40.0652 -40.0609 -40.0583 -40.0523 -40.0349
     6.7356   8.2126   9.6913  10.3905  10.7126  10.7701  10.9667  11.0942
    11.2059  11.3928  11.5003  11.6550  11.9641  11.9946  12.0690  12.3095
    12.3528  12.5580  12.6014  12.6630  12.7736  13.0966  13.2295  13.5578
    13.6398  13.6985  13.7417  13.7789  13.9615  14.0682  14.2112  14.7506
    14.7844  15.8615  16.3088  16.5035  16.8616  18.0686  18.4050  18.8919
    19.7432  19.8755  20.5170  20.7077  21.7734  21.9696  21.9817  23.7331
    23.8718

          k = 0.0000 0.3849 0.4105 (  4813 PWs)   bands (ev):

   -88.8639 -88.8614 -88.8608 -88.8587 -88.8584 -88.8565 -40.1851 -40.1781
   -40.1685 -40.1621 -40.1571 -40.1562 -40.1329 -40.1227 -40.1106 -40.0993
   -40.0859 -40.0849 -40.0830 -40.0630 -40.0611 -40.0582 -40.0566 -40.0536
     7.4256   8.3134   9.7952  10.0902  10.6568  10.7222  11.0146  11.1157
    11.4174  11.4237  11.5514  11.6139  11.6662  11.8840  12.0722  12.1552
    12.2784  12.6578  12.6758  12.8919  13.0142  13.1614  13.2057  13.4053
    13.4727  13.4881  13.7427  13.8811  13.9540  14.0356  14.2781  14.3457
    14.6408  14.9469  15.4482  15.9969  16.5897  16.9275  17.8710  19.6156
    19.6775  20.4901  20.8785  21.6316  21.9083  23.0443  23.4549  23.9365
    24.4081

          k = 0.0000 0.3849-0.4105 (  4813 PWs)   bands (ev):

   -88.8638 -88.8614 -88.8608 -88.8587 -88.8584 -88.8564 -40.1852 -40.1778
   -40.1689 -40.1626 -40.1567 -40.1559 -40.1325 -40.1228 -40.1109 -40.1009
   -40.0847 -40.0842 -40.0821 -40.0640 -40.0619 -40.0582 -40.0575 -40.0522
     7.4255   8.3144   9.7879  10.1007  10.6553  10.7159  11.0106  11.1171
    11.4203  11.4322  11.5559  11.6077  11.6654  11.8845  12.0678  12.1538
    12.2775  12.6613  12.6791  12.8928  13.0104  13.1594  13.2100  13.4040
    13.4753  13.4873  13.7414  13.8797  13.9580  14.0333  14.2764  14.3468
    14.6372  14.9473  15.4455  15.9952  16.5950  16.9280  17.8740  19.6193
    19.6837  20.4890  20.8645  21.6336  21.8925  23.0523  23.4608  23.9426
    24.5892

          k = 0.3333 0.1925-0.0000 (  4826 PWs)   bands (ev):

   -88.8654 -88.8622 -88.8600 -88.8589 -88.8569 -88.8562 -40.1785 -40.1672
   -40.1625 -40.1613 -40.1560 -40.1412 -40.1383 -40.1314 -40.1272 -40.1219
   -40.0960 -40.0865 -40.0776 -40.0638 -40.0617 -40.0596 -40.0532 -40.0349
     6.7353   8.2112   9.6920  10.3922  10.7100  10.7701  10.9667  11.0962
    11.2067  11.3897  11.5022  11.6557  11.9634  11.9984  12.0668  12.3059
    12.3637  12.5585  12.5968  12.6616  12.7743  13.0947  13.2306  13.5592
    13.6389  13.7027  13.7432  13.7768  13.9613  14.0681  14.2087  14.7466
    14.7856  15.8627  16.3077  16.4986  16.8618  18.0698  18.4028  18.8836
    19.7398  19.8798  20.5183  20.7174  21.7720  21.9711  21.9874  23.7294
    23.8718

          k = 0.3333 0.1925 0.4105 (  4813 PWs)   bands (ev):

   -88.8640 -88.8619 -88.8598 -88.8590 -88.8579 -88.8570 -40.1859 -40.1785
   -40.1686 -40.1626 -40.1566 -40.1554 -40.1325 -40.1226 -40.1107 -40.1006
   -40.0852 -40.0831 -40.0808 -40.0636 -40.0626 -40.0586 -40.0581 -40.0531
     7.4255   8.3144   9.7872  10.0997  10.6558  10.7157  11.0093  11.1180
    11.4215  11.4316  11.5544  11.6070  11.6667  11.8818  12.0694  12.1527
    12.2788  12.6596  12.6791  12.8939  13.0102  13.1666  13.2129  13.4067
    13.4786  13.4902  13.7389  13.8806  13.9573  14.0307  14.2755  14.3445
    14.6330  14.9451  15.4420  15.9944  16.6004  16.9279  17.8699  19.6194
    19.6852  20.4886  20.8669  21.6362  21.8892  23.0519  23.4613  23.9396
    24.5907

          k = 0.3333 0.1925-0.4105 (  4813 PWs)   bands (ev):

   -88.8640 -88.8619 -88.8599 -88.8590 -88.8579 -88.8570 -40.1858 -40.1788
   -40.1681 -40.1621 -40.1571 -40.1557 -40.1330 -40.1226 -40.1104 -40.0990
   -40.0856 -40.0846 -40.0817 -40.0626 -40.0618 -40.0582 -40.0576 -40.0544
     7.4257   8.3133   9.7948  10.0890  10.6571  10.7225  11.0130  11.1165
    11.4151  11.4263  11.5503  11.6125  11.6675  11.8819  12.0745  12.1545
    12.2797  12.6566  12.6753  12.8927  13.0136  13.1693  13.2079  13.4078
    13.4752  13.4908  13.7402  13.8822  13.9534  14.0329  14.2770  14.3433
    14.6375  14.9447  15.4443  15.9963  16.5952  16.9276  17.8669  19.6153
    19.6790  20.4895  20.8815  21.6341  21.9048  23.0437  23.4553  23.9345
    24.6091

          k = 0.3333 0.5774-0.0000 (  4800 PWs)   bands (ev):

   -88.8640 -88.8628 -88.8614 -88.8580 -88.8570 -88.8564 -40.1655 -40.1595
   -40.1570 -40.1559 -40.1460 -40.1447 -40.1271 -40.1255 -40.1247 -40.1205
   -40.1095 -40.1082 -40.0866 -40.0662 -40.0651 -40.0631 -40.0613 -40.0329
     7.6874   7.6959   9.0269  10.5851  10.5903  10.9344  11.2019  11.3687
    11.3727  11.5528  11.5573  11.5597  11.6747  11.8710  11.8772  12.2196
    12.2276  12.3322  12.5540  12.8240  12.8286  13.0741  13.0786  13.4729
    13.6660  13.6714  13.7309  13.8273  13.8291  13.8354  14.1739  14.1799
    14.7174  16.0768  16.0790  17.8377  17.8473  17.9496  18.3444  18.3501
    18.7692  19.3644  20.8883  21.4619  21.4692  23.3904  23.4011  23.5307
    23.5386

          k = 0.3333 0.5774 0.4105 (  4818 PWs)   bands (ev):

   -88.8627 -88.8621 -88.8609 -88.8586 -88.8582 -88.8571 -40.1714 -40.1706
   -40.1579 -40.1572 -40.1565 -40.1483 -40.1227 -40.1190 -40.1187 -40.1175
   -40.0950 -40.0944 -40.0870 -40.0668 -40.0659 -40.0575 -40.0566 -40.0564
     8.1608   8.1674   9.8523  10.1299  10.1365  11.0021  11.2017  11.3340
    11.3371  11.4513  11.5449  11.5522  11.7212  11.7238  12.1034  12.1085
    12.1118  12.1913  12.6263  12.7064  12.7089  13.0705  13.0769  13.2741
    13.3929  13.5732  13.7192  13.7222  13.9435  13.9490  14.1826  14.4372
    14.4412  15.0890  15.2809  15.2839  17.4297  17.4359  19.1253  19.4243
    19.4329  20.5459  21.4429  21.4496  23.1947  23.6354  23.6401  23.8995
    24.8004

          k = 0.3333 0.5774-0.4105 (  4818 PWs)   bands (ev):

   -88.8627 -88.8621 -88.8609 -88.8586 -88.8583 -88.8571 -40.1713 -40.1707
   -40.1578 -40.1573 -40.1564 -40.1483 -40.1227 -40.1190 -40.1187 -40.1174
   -40.0950 -40.0944 -40.0871 -40.0668 -40.0660 -40.0574 -40.0568 -40.0564
     8.1609   8.1673   9.8523  10.1295  10.1369  11.0021  11.2017  11.3337
    11.3374  11.4514  11.5450  11.5521  11.7211  11.7240  12.1038  12.1081
    12.1118  12.1910  12.6263  12.7064  12.7093  13.0716  13.0757  13.2742
    13.3929  13.5730  13.7187  13.7229  13.9438  13.9488  14.1827  14.4377
    14.4407  15.0888  15.2803  15.2844  17.4294  17.4362  19.1253  19.4249
    19.4322  20.5459  21.4434  21.4491  23.1946  23.6345  23.6411  23.8994
    24.8059

          k = 0.3333-0.1925 0.0000 (  4826 PWs)   bands (ev):

   -88.8654 -88.8621 -88.8603 -88.8586 -88.8570 -88.8562 -40.1787 -40.1674
   -40.1623 -40.1612 -40.1564 -40.1405 -40.1383 -40.1316 -40.1262 -40.1229
   -40.0960 -40.0862 -40.0774 -40.0639 -40.0620 -40.0596 -40.0532 -40.0349
     6.7363   8.2083   9.6997  10.3885  10.7107  10.7686  10.9664  11.0949
    11.2033  11.3913  11.5029  11.6537  11.9657  11.9957  12.0670  12.3096
    12.3576  12.5593  12.5988  12.6646  12.7751  13.0959  13.2305  13.5575
    13.6392  13.6982  13.7412  13.7794  13.9602  14.0690  14.2102  14.7495
    14.7849  15.8619  16.3072  16.5015  16.8613  18.0667  18.3998  18.8870
    19.7433  19.8836  20.5211  20.7212  21.7749  21.9670  21.9811  23.7235
    23.8655

          k = 0.3333-0.1925 0.4105 (  4813 PWs)   bands (ev):

   -88.8641 -88.8620 -88.8596 -88.8590 -88.8578 -88.8571 -40.1858 -40.1788
   -40.1682 -40.1623 -40.1574 -40.1553 -40.1328 -40.1225 -40.1106 -40.0989
   -40.0860 -40.0841 -40.0813 -40.0627 -40.0620 -40.0581 -40.0575 -40.0547
     7.4264   8.3127   9.7944  10.0879  10.6570  10.7218  11.0139  11.1200
    11.4189  11.4255  11.5510  11.6139  11.6649  11.8809  12.0704  12.1530
    12.2768  12.6586  12.6748  12.8933  13.0142  13.1614  13.2115  13.4063
    13.4783  13.4897  13.7418  13.8830  13.9520  14.0354  14.2769  14.3472
    14.6343  14.9463  15.4498  15.9956  16.5942  16.9244  17.8688  19.6185
    19.6771  20.4857  20.8760  21.6256  21.9134  23.0445  23.4563  23.9357
    24.6000

          k = 0.3333-0.1925-0.4105 (  4813 PWs)   bands (ev):

   -88.8641 -88.8619 -88.8596 -88.8590 -88.8578 -88.8571 -40.1860 -40.1784
   -40.1681 -40.1627 -40.1570 -40.1552 -40.1331 -40.1226 -40.1106 -40.1003
   -40.0854 -40.0829 -40.0806 -40.0634 -40.0627 -40.0588 -40.0581 -40.0529
     7.4265   8.3120   9.7908  10.0962  10.6576  10.7160  11.0074  11.1192
    11.4209  11.4323  11.5524  11.6060  11.6661  11.8871  12.0716  12.1565
    12.2794  12.6580  12.6822  12.8901  13.0107  13.1650  13.2080  13.4038
    13.4727  13.4853  13.7414  13.8790  13.9582  14.0309  14.2759  14.3471
    14.6415  14.9464  15.4424  15.9957  16.6006  16.9270  17.8707  19.6181
    19.6844  20.4821  20.8698  21.6268  21.8961  23.0506  23.4622  23.9489
    24.5857

     the Fermi energy is    16.9170 ev

!    total energy              =   -1671.03272511 Ry
     estimated scf accuracy    <          1.0E-09 Ry
     smearing contrib. (-TS)   =       0.00072577 Ry
     internal energy E=F+TS    =   -1671.03345088 Ry

     convergence has been achieved in   7 iterations

     Forces acting on atoms (cartesian axes, Ry/au):

     atom    1 type  2   force =     0.00006200    0.00000121   -0.00008201
     atom    2 type  2   force =    -0.00001758    0.00006545    0.00008387
     atom    3 type  1   force =     0.00092917    0.00013414    0.00062591
     atom    4 type  1   force =    -0.00052578   -0.00035153   -0.00024071
     atom    5 type  1   force =    -0.00013550    0.00029380    0.00078483
     atom    6 type  1   force =     0.00073986    0.00017216   -0.00023169
     atom    7 type  1   force =    -0.00057336   -0.00025216   -0.00088036
     atom    8 type  1   force =    -0.00047882   -0.00006308   -0.00005983
     The non-local contrib.  to forces
     atom    1 type  2   force =    -0.00052272   -0.00029559    0.00167491
     atom    2 type  2   force =    -0.00004052   -0.00066604   -0.00167146
     atom    3 type  1   force =     0.01129006    0.00402285    0.00108770
     atom    4 type  1   force =    -0.00900314    0.00403911   -0.00130818
     atom    5 type  1   force =    -0.00131675   -0.00801391    0.00151076
     atom    6 type  1   force =    -0.00604243   -0.00493327   -0.00015650
     atom    7 type  1   force =     0.00686341   -0.00568766   -0.00147369
     atom    8 type  1   force =    -0.00222441    0.00985509    0.00034223
     The ionic contribution  to forces
     atom    1 type  2   force =     0.03698476    0.00816833   -0.05388607
     atom    2 type  2   force =    -0.01127644    0.03398169    0.05396655
     atom    3 type  1   force =     9.08660988    5.13102906    0.13467462
     atom    4 type  1   force =    -9.02211434    5.05455369   -0.03015602
     atom    5 type  1   force =    -0.02181277  -10.21364902    0.16632452
     atom    6 type  1   force =    -8.72533940   -5.08120424   -0.06548380
     atom    7 type  1   force =     8.78134799   -5.19701403   -0.17531960
     atom    8 type  1   force =    -0.12439969   10.26413453   -0.03012020
     The local contribution  to forces
     atom    1 type  2   force =    -0.03643962   -0.00790332    0.05223584
     atom    2 type  2   force =     0.01128517   -0.03331148   -0.05231724
     atom    3 type  1   force =    -9.09694944   -5.13492001   -0.13512049
     atom    4 type  1   force =     9.03056839   -5.05892523    0.03127192
     atom    5 type  1   force =     0.02303031   10.22192925   -0.16703330
     atom    6 type  1   force =     8.73210387    5.08631911    0.06537911
     atom    7 type  1   force =    -8.78878992    5.20240850    0.17589448
     atom    8 type  1   force =     0.12612286  -10.27404670    0.02968623
     The core correction contribution to forces
     atom    1 type  2   force =     0.00004158    0.00003344   -0.00010673
     atom    2 type  2   force =     0.00001214    0.00005943    0.00010619
     atom    3 type  1   force =     0.00000000    0.00000000    0.00000000
     atom    4 type  1   force =     0.00000000    0.00000000    0.00000000
     atom    5 type  1   force =     0.00000000    0.00000000    0.00000000
     atom    6 type  1   force =     0.00000000    0.00000000    0.00000000
     atom    7 type  1   force =     0.00000000    0.00000000    0.00000000
     atom    8 type  1   force =     0.00000000    0.00000000    0.00000000
     The Hubbard contrib.    to forces
     atom    1 type  2   force =     0.00000000    0.00000000    0.00000000
     atom    2 type  2   force =     0.00000000    0.00000000    0.00000000
     atom    3 type  1   force =     0.00000000    0.00000000    0.00000000
     atom    4 type  1   force =     0.00000000    0.00000000    0.00000000
     atom    5 type  1   force =     0.00000000    0.00000000    0.00000000
     atom    6 type  1   force =     0.00000000    0.00000000    0.00000000
     atom    7 type  1   force =     0.00000000    0.00000000    0.00000000
     atom    8 type  1   force =     0.00000000    0.00000000    0.00000000
     The SCF correction term to forces
     atom    1 type  2   force =    -0.00000174   -0.00000166    0.00000007
     atom    2 type  2   force =     0.00000233    0.00000184   -0.00000013
     atom    3 type  1   force =    -0.00002108    0.00000223   -0.00001588
     atom    4 type  1   force =     0.00002357   -0.00001910   -0.00004838
     atom    5 type  1   force =    -0.00003603    0.00002746   -0.00001710
     atom    6 type  1   force =     0.00001808   -0.00000945    0.00002954
     atom    7 type  1   force =     0.00000541    0.00004102    0.00001850
     atom    8 type  1   force =     0.00002268   -0.00000601    0.00003195

     Total force =     0.002123     Total SCF correction =     0.000106


     Computing stress (Cartesian axis) and pressure

          total   stress  (Ry/bohr**3)                   (kbar)     P=      -74.62
  -0.00065257  -0.00000033   0.00000187          -96.00       -0.05        0.28
  -0.00000033  -0.00065149  -0.00000092           -0.05      -95.84       -0.14
   0.00000187  -0.00000092  -0.00021761            0.28       -0.14      -32.01


     Entering Dynamics;  it =     2   time =  0.00097 pico-seconds

  new lattice vectors (alat unit) :
   0.999957595  -0.000028771   0.000002092
  -0.500003714   0.865964018   0.000002161
   0.000001699   0.000003007   0.812037220
  new unit-cell volume =    943.3058 (a.u.)^3
  new positions in cryst coord
Si       0.666311268   0.333898808   0.252254131
Si       0.333688849   0.666101301   0.747745873
Au       0.334081629   0.168464770   0.748804553
Au       0.831422162   0.168052714   0.751899942
Au       0.831924137   0.661958465   0.748508591
Au       0.663127237   0.832312946   0.250389734
Au       0.169759272   0.832452712   0.250542473
Au       0.169685547   0.336758378   0.249854706
  new positions in cart coord (alat unit)
Si       0.499332798   0.289125941   0.204841859
Si       0.000622845   0.576812407   0.607199618
Au       0.249835723   0.145877069   0.608058231
Au       0.747361201   0.145505943   0.610572842
Au       0.500908439   0.573210527   0.607820007
Au       0.246939978   0.720734736   0.203328970
Au      -0.246476949   0.720869965   0.203451968
Au       0.001298336   0.291616507   0.202892403

     Ekin =     0.13301546 Ry    T = 1555.7 K  Etot =    -1670.89970965
     new unit-cell volume =    943.30578 a.u.^3 (   139.78349 Ang^3 )
     density =     14.70630 g/cm^3

CELL_PARAMETERS (angstrom)
   5.836020791  -0.000167918   0.000012210
  -2.918155817   5.053998328   0.000012612
   0.000009915   0.000017551   4.739267072

ATOMIC_POSITIONS (crystal)
Si            0.6663112684        0.3338988077        0.2522541306
Si            0.3336888492        0.6661013014        0.7477458727
Au            0.3340816287        0.1684647697        0.7488045532
Au            0.8314221618        0.1680527142        0.7518999421
Au            0.8319241369        0.6619584648        0.7485085911
Au            0.6631272367        0.8323129456        0.2503897343
Au            0.1697592720        0.8324527124        0.2505424732
Au            0.1696855472        0.3367583778        0.2498547057



     Writing config-only to output data dir ./out/siau_relax.save/
     NEW-OLD atomic charge density approx. for the potential
     extrapolated charge  121.98723, renormalised to  122.00000

     total cpu time spent up to now is       14.1 secs

     per-process dynamical memory:    33.3 Mb

     Self-consistent Calculation

     iteration #  1     ecut=    45.00 Ry     beta= 0.40
     Davidson diagonalization with overlap
     ethr =  1.00E-06,  avg # of iterations =  5.2

     Threshold (ethr) on eigenvalues was too large:
     Diagonalizing with lowered threshold

     Davidson diagonalization with overlap
     ethr =  3.25E-08,  avg # of iterations =  1.8

     total cpu time spent up to now is       15.7 secs

     total energy              =   -1671.03269904 Ry
     estimated scf accuracy    <       0.00003985 Ry

     iteration #  2     ecut=    45.00 Ry     beta= 0.40
     Davidson diagonalization with overlap
     ethr =  3.27E-08,  avg # of iterations =  3.0

     total cpu time spent up to now is       16.4 secs

     total energy              =   -1671.03272264 Ry
     estimated scf accuracy    <       0.00004577 Ry

     iteration #  3     ecut=    45.00 Ry     beta= 0.40
     Davidson diagonalization with overlap
     ethr =  3.27E-08,  avg # of iterations =  1.7

     total cpu time spent up to now is       16.9 secs

     total energy              =   -1671.03272325 Ry
     estimated scf accuracy    <       0.00000685 Ry

     iteration #  4     ecut=    45.00 Ry     beta= 0.40
     Davidson diagonalization with overlap
     ethr =  5.62E-09,  avg # of iterations =  2.1

     total cpu time spent up to now is       17.4 secs

     total energy              =   -1671.03272434 Ry
     estimated scf accuracy    <       0.00000032 Ry

     iteration #  5     ecut=    45.00 Ry     beta= 0.40
     Davidson diagonalization with overlap
     ethr =  2.63E-10,  avg # of iterations =  2.9

     total cpu time spent up to now is       18.1 secs

     total energy              =   -1671.03272437 Ry
     estimated scf accuracy    <       0.00000021 Ry

     iteration #  6     ecut=    45.00 Ry     beta= 0.40
     Davidson diagonalization with overlap
     ethr =  1.74E-10,  avg # of iterations =  2.3

     total cpu time spent up to now is       18.6 secs

     total energy              =   -1671.03272437 Ry
     estimated scf accuracy    <       0.00000005 Ry

     iteration #  7     ecut=    45.00 Ry     beta= 0.40
     Davidson diagonalization with overlap
     ethr =  3.76E-11,  avg # of iterations =  2.1

     total cpu time spent up to now is       19.1 secs

     total energy              =   -1671.03272438 Ry
     estimated scf accuracy    <          5.0E-09 Ry

     iteration #  8     ecut=    45.00 Ry     beta= 0.40
     Davidson diagonalization with overlap
     ethr =  4.09E-12,  avg # of iterations =  1.8

     total cpu time spent up to now is       19.6 secs

     End of self-consistent calculation

          k = 0.0000 0.0000 0.0000 (  4825 PWs)   bands (ev):

   -88.8653 -88.8609 -88.8578 -88.8564 -88.8550 -88.8527 -40.1955 -40.1702
   -40.1680 -40.1674 -40.1652 -40.1587 -40.1568 -40.1253 -40.1217 -40.1184
   -40.0789 -40.0602 -40.0561 -40.0531 -40.0511 -40.0508 -40.0488 -40.0378
     6.0572   8.2977  10.3839  10.4076  10.4371  10.5613  10.5799  10.8776
    10.8812  11.5130  11.5194  12.0457  12.1504  12.1663  12.2168  12.4204
    12.4321  12.4694  12.6291  12.6349  13.3992  13.4058  13.5311  13.5319
    13.8826  13.8952  13.9753  13.9904  14.3268  14.5860  14.8100  14.8881
    14.9300  15.0266  15.9177  15.9268  16.7766  16.7862  17.2587  19.3442
    19.3616  19.5229  19.5444  21.8459  22.4996  22.5356  22.5509  22.5695
    24.7644

          k =-0.0000-0.0000 0.4105 (  4825 PWs)   bands (ev):

   -88.8640 -88.8611 -88.8581 -88.8562 -88.8555 -88.8532 -40.1928 -40.1843
   -40.1821 -40.1806 -40.1728 -40.1715 -40.1240 -40.1137 -40.0908 -40.0896
   -40.0870 -40.0659 -40.0630 -40.0598 -40.0539 -40.0518 -40.0515 -40.0494
     6.8198   8.0399   9.8169   9.8806  10.6266  10.6276  10.9861  10.9976
    11.3473  11.3535  11.3627  11.4502  11.6715  11.6774  12.3207  12.7537
    13.0542  13.0558  13.1036  13.2143  13.2255  13.2743  13.2858  13.7203
    13.7251  13.8877  13.8983  14.0450  14.4866  14.5060  14.9071  14.9133
    14.9854  15.0064  15.0189  15.4239  16.2479  16.2604  16.5722  19.1094
    19.2193  19.2310  19.5352  19.5473  21.5331  23.2443  23.8274  23.8379
    26.0618

          k = 0.0000 0.3849-0.0000 (  4826 PWs)   bands (ev):

   -88.8639 -88.8614 -88.8584 -88.8569 -88.8548 -88.8527 -40.1756 -40.1644
   -40.1614 -40.1598 -40.1532 -40.1417 -40.1371 -40.1290 -40.1264 -40.1188
   -40.0941 -40.0864 -40.0771 -40.0641 -40.0585 -40.0556 -40.0492 -40.0329
     6.7366   8.2158   9.6896  10.3920  10.7152  10.7721  10.9680  11.0945
    11.2085  11.3957  11.5002  11.6566  11.9646  11.9951  12.0722  12.3119
    12.3489  12.5585  12.6057  12.6652  12.7749  13.0989  13.2302  13.5594
    13.6429  13.6989  13.7423  13.7827  13.9645  14.0701  14.2148  14.7544
    14.7857  15.8632  16.3127  16.5079  16.8643  18.0715  18.4095  18.8992
    19.7472  19.8742  20.5168  20.7034  21.7753  21.9733  21.9833  23.7404
    23.8772

          k = 0.0000 0.3849 0.4105 (  4813 PWs)   bands (ev):

   -88.8628 -88.8608 -88.8590 -88.8565 -88.8558 -88.8532 -40.1828 -40.1761
   -40.1670 -40.1602 -40.1554 -40.1548 -40.1311 -40.1210 -40.1087 -40.0969
   -40.0858 -40.0832 -40.0820 -40.0611 -40.0583 -40.0560 -40.0537 -40.0513
     7.4264   8.3148   9.7999  10.0878  10.6582  10.7269  11.0190  11.1150
    11.4127  11.4241  11.5512  11.6191  11.6688  11.8859  12.0749  12.1580
    12.2801  12.6576  12.6762  12.8935  13.0178  13.1602  13.2040  13.4068
    13.4713  13.4907  13.7462  13.8832  13.9544  14.0407  14.2820  14.3480
    14.6467  14.9498  15.4532  16.0005  16.5859  16.9307  17.8746  19.6157
    19.6772  20.4956  20.8872  21.6349  21.9190  23.0432  23.4546  23.9367
    24.4022

          k = 0.0000 0.3849-0.4105 (  4813 PWs)   bands (ev):

   -88.8628 -88.8608 -88.8590 -88.8565 -88.8559 -88.8532 -40.1831 -40.1754
   -40.1677 -40.1613 -40.1548 -40.1540 -40.1302 -40.1211 -40.1092 -40.1003
   -40.0830 -40.0820 -40.0804 -40.0630 -40.0599 -40.0560 -40.0552 -40.0488
     7.4261   8.3167   9.7853  10.1089  10.6550  10.7145  11.0112  11.1178
    11.4197  11.4398  11.5603  11.6069  11.6669  11.8871  12.0662  12.1552
    12.2781  12.6653  12.6823  12.8953  13.0099  13.1566  13.2124  13.4042
    13.4760  13.4896  13.7433  13.8809  13.9621  14.0363  14.2783  14.3504
    14.6395  14.9506  15.4478  15.9970  16.5966  16.9316  17.8806  19.6233
    19.6896  20.4934  20.8592  21.6388  21.8873  23.0592  23.4660  23.9492
    24.4253

          k = 0.3334 0.1925-0.0000 (  4826 PWs)   bands (ev):

   -88.8641 -88.8614 -88.8583 -88.8567 -88.8545 -88.8532 -40.1770 -40.1656
   -40.1612 -40.1593 -40.1541 -40.1393 -40.1365 -40.1295 -40.1257 -40.1196
   -40.0941 -40.0843 -40.0756 -40.0619 -40.0600 -40.0576 -40.0511 -40.0328
     6.7361   8.2130   9.6912  10.3954  10.7100  10.7722  10.9678  11.0984
    11.2099  11.3895  11.5041  11.6579  11.9634  12.0024  12.0677  12.3048
    12.3707  12.5593  12.5972  12.6623  12.7760  13.0952  13.2325  13.5622
    13.6409  13.7072  13.7458  13.7781  13.9640  14.0700  14.2099  14.7464
    14.7881  15.8656  16.3105  16.4981  16.8648  18.0741  18.4049  18.8827
    19.7403  19.8828  20.5193  20.7229  21.7726  21.9764  21.9945  23.7331
    23.8768

          k = 0.3334 0.1925 0.4105 (  4813 PWs)   bands (ev):

   -88.8630 -88.8611 -88.8584 -88.8567 -88.8553 -88.8537 -40.1845 -40.1767
   -40.1671 -40.1612 -40.1545 -40.1534 -40.1303 -40.1207 -40.1088 -40.0995
   -40.0833 -40.0805 -40.0780 -40.0626 -40.0608 -40.0571 -40.0558 -40.0505
     7.4261   8.3168   9.7840  10.1071  10.6563  10.7136  11.0085  11.1197
    11.4232  11.4376  11.5565  11.6059  11.6696  11.8816  12.0693  12.1529
    12.2812  12.6613  12.6829  12.8972  13.0097  13.1709  13.2185  13.4093
    13.4828  13.4954  13.7386  13.8822  13.9610  14.0308  14.2767  14.3456
    14.6310  14.9462  15.4407  15.9955  16.6072  16.9314  17.8725  19.6236
    19.6923  20.4926  20.8640  21.6439  21.8806  23.0585  23.4670  23.9431
    24.5874

          k = 0.3334 0.1925-0.4105 (  4813 PWs)   bands (ev):

   -88.8630 -88.8611 -88.8584 -88.8566 -88.8553 -88.8538 -40.1843 -40.1773
   -40.1661 -40.1602 -40.1555 -40.1539 -40.1312 -40.1206 -40.1083 -40.0965
   -40.0845 -40.0829 -40.0798 -40.0604 -40.0594 -40.0561 -40.0553 -40.0529
     7.4265   8.3145   9.7991  10.0856  10.6585  10.7277  11.0159  11.1167
    11.4083  11.4290  11.5495  11.6160  11.6711  11.8821  12.0796  12.1562
    12.2826  12.6561  12.6744  12.8949  13.0164  13.1764  13.2082  13.4116
    13.4762  13.4963  13.7411  13.8857  13.9532  14.0351  14.2795  14.3434
    14.6399  14.9455  15.4453  15.9992  16.5970  16.9309  17.8665  19.6154
    19.6801  20.4943  20.8932  21.6398  21.9118  23.0421  23.4549  23.9331
    24.6215

          k = 0.3334 0.5774-0.0000 (  4800 PWs)   bands (ev):

   -88.8629 -88.8619 -88.8592 -88.8564 -88.8545 -88.8533 -40.1639 -40.1581
   -40.1556 -40.1535 -40.1449 -40.1424 -40.1262 -40.1233 -40.1224 -40.1185
   -40.1082 -40.1054 -40.0847 -40.0655 -40.0634 -40.0610 -40.0579 -40.0308
     7.6843   7.7013   9.0286  10.5839  10.5943  10.9361  11.2032  11.3677
    11.3755  11.5521  11.5594  11.5630  11.6764  11.8690  11.8817  12.2169
    12.2330  12.3339  12.5559  12.8237  12.8327  13.0736  13.0826  13.4744
    13.6645  13.6752  13.7343  13.8270  13.8317  13.8399  14.1732  14.1854
    14.7192  16.0787  16.0831  17.8348  17.8539  17.9524  18.3442  18.3556
    18.7722  19.3670  20.8910  21.4615  21.4759  23.3855  23.4059  23.5330
    23.5482

          k = 0.3334 0.5774 0.4105 (  4818 PWs)   bands (ev):

   -88.8622 -88.8610 -88.8590 -88.8566 -88.8555 -88.8538 -40.1700 -40.1685
   -40.1566 -40.1556 -40.1544 -40.1464 -40.1209 -40.1180 -40.1167 -40.1149
   -40.0935 -40.0923 -40.0851 -40.0656 -40.0637 -40.0558 -40.0544 -40.0537
     8.1586   8.1716   9.8538  10.1282  10.1413  11.0035  11.2035  11.3336
    11.3397  11.4526  11.5421  11.5569  11.7217  11.7266  12.1028  12.1099
    12.1154  12.1941  12.6280  12.7069  12.7117  13.0691  13.0819  13.2757
    13.3951  13.5751  13.7200  13.7257  13.9427  13.9540  14.1845  14.4375
    14.4456  15.0915  15.2817  15.2877  17.4295  17.4417  19.1278  19.4229
    19.4400  20.5487  21.4426  21.4559  23.1966  23.6364  23.6457  23.9035
    24.8011

          k = 0.3334 0.5774-0.4105 (  4818 PWs)   bands (ev):

   -88.8622 -88.8610 -88.8590 -88.8566 -88.8555 -88.8538 -40.1699 -40.1688
   -40.1563 -40.1557 -40.1543 -40.1465 -40.1211 -40.1180 -40.1167 -40.1146
   -40.0935 -40.0922 -40.0852 -40.0655 -40.0638 -40.0555 -40.0545 -40.0540
     8.1587   8.1715   9.8537  10.1274  10.1422  11.0034  11.2033  11.3330
    11.3403  11.4531  11.5424  11.5566  11.7214  11.7269  12.1041  12.1090
    12.1152  12.1929  12.6278  12.7074  12.7127  13.0710  13.0793  13.2762
    13.3950  13.5742  13.7190  13.7273  13.9434  13.9534  14.1850  14.4385
    14.4446  15.0909  15.2805  15.2887  17.4288  17.4426  19.1278  19.4242
    19.4385  20.5487  21.4435  21.4550  23.1964  23.6345  23.6477  23.9032
    24.8122

          k = 0.3333-0.1925 0.0000 (  4826 PWs)   bands (ev):

   -88.8642 -88.8613 -88.8585 -88.8563 -88.8546 -88.8533 -40.1777 -40.1661
   -40.1603 -40.1592 -40.1549 -40.1381 -40.1361 -40.1299 -40.1238 -40.1216
   -40.0941 -40.0838 -40.0751 -40.0621 -40.0606 -40.0579 -40.0510 -40.0328
     6.7379   8.2071   9.7065  10.3881  10.7115  10.7690  10.9675  11.0958
    11.2030  11.3928  11.5056  11.6540  11.9652  12.0001  12.0678  12.3114
    12.3595  12.5611  12.6002  12.6684  12.7780  13.0978  13.2323  13.5586
    13.6410  13.6986  13.7403  13.7848  13.9619  14.0716  14.2127  14.7520
    14.7871  15.8641  16.3096  16.5040  16.8636  18.0679  18.3992  18.8893
    19.7468  19.8909  20.5253  20.7302  21.7787  21.9683  21.9818  23.7213
    23.8644

          k = 0.3333-0.1925 0.4105 (  4813 PWs)   bands (ev):

   -88.8631 -88.8611 -88.8582 -88.8567 -88.8552 -88.8539 -40.1843 -40.1774
   -40.1663 -40.1606 -40.1560 -40.1531 -40.1309 -40.1207 -40.1086 -40.0961
   -40.0850 -40.0823 -40.0788 -40.0607 -40.0599 -40.0562 -40.0551 -40.0533
     7.4279   8.3134   9.7980  10.0836  10.6587  10.7259  11.0178  11.1237
    11.4172  11.4263  11.5503  11.6191  11.6661  11.8797  12.0713  12.1535
    12.2768  12.6594  12.6746  12.8959  13.0178  13.1604  13.2156  13.4090
    13.4823  13.4939  13.7445  13.8871  13.9505  14.0400  14.2792  14.3513
    14.6337  14.9486  15.4565  15.9980  16.5950  16.9243  17.8704  19.6221
    19.6759  20.4866  20.8822  21.6228  21.9287  23.0435  23.4569  23.9346
    24.4245

          k = 0.3333-0.1925-0.4105 (  4813 PWs)   bands (ev):

   -88.8631 -88.8611 -88.8582 -88.8567 -88.8552 -88.8539 -40.1847 -40.1766
   -40.1662 -40.1614 -40.1552 -40.1529 -40.1314 -40.1208 -40.1087 -40.0989
   -40.0838 -40.0800 -40.0775 -40.0627 -40.0608 -40.0576 -40.0559 -40.0502
     7.4281   8.3119   9.7909  10.1001  10.6599  10.7145  11.0046  11.1220
    11.4224  11.4383  11.5537  11.6034  11.6684  11.8920  12.0739  12.1602
    12.2820  12.6586  12.6891  12.8895  13.0107  13.1676  13.2087  13.4040
    13.4713  13.4848  13.7436  13.8791  13.9629  14.0309  14.2773  14.3511
    14.6481  14.9489  15.4416  15.9981  16.6079  16.9295  17.8742  19.6212
    19.6905  20.4795  20.8700  21.6251  21.8942  23.0558  23.4689  23.9610
    24.5772

     the Fermi energy is    16.9198 ev

!    total energy              =   -1671.03272438 Ry
     estimated scf accuracy    <          4.2E-10 Ry
     smearing contrib. (-TS)   =       0.00072354 Ry
     internal energy E=F+TS    =   -1671.03344792 Ry

     convergence has been achieved in   8 iterations

     Forces acting on atoms (cartesian axes, Ry/au):

     atom    1 type  2   force =     0.00013001   -0.00000038   -0.00021315
     atom    2 type  2   force =    -0.00003208    0.00013202    0.00022035
     atom    3 type  1   force =     0.00185679    0.00027763    0.00127105
     atom    4 type  1   force =    -0.00106713   -0.00070099   -0.00046975
     atom    5 type  1   force =    -0.00026497    0.00056745    0.00154447
     atom    6 type  1   force =     0.00146967    0.00034617   -0.00044192
     atom    7 type  1   force =    -0.00113526   -0.00051820   -0.00175517
     atom    8 type  1   force =    -0.00095703   -0.00010369   -0.00015589
     The non-local contrib.  to forces
     atom    1 type  2   force =    -0.00102821   -0.00059856    0.00333579
     atom    2 type  2   force =    -0.00006891   -0.00134379   -0.00332261
     atom    3 type  1   force =     0.01442082    0.00333378    0.00217313
     atom    4 type  1   force =    -0.00987693    0.00338344   -0.00260909
     atom    5 type  1   force =    -0.00262909   -0.00661600    0.00300397
     atom    6 type  1   force =    -0.00393329   -0.00517587   -0.00028729
     atom    7 type  1   force =     0.00558763   -0.00666623   -0.00293955
     atom    8 type  1   force =    -0.00442398    0.01031823    0.00066890
     The ionic contribution  to forces
     atom    1 type  2   force =     0.07416702    0.01611597   -0.10776470
     atom    2 type  2   force =    -0.02264677    0.06798040    0.10808226
     atom    3 type  1   force =     9.27617212    5.12530098    0.27018721
     atom    4 type  1   force =    -9.14948122    4.97380760   -0.05979840
     atom    5 type  1   force =    -0.04359447  -10.15564732    0.33116414
     atom    6 type  1   force =    -8.55591424   -5.02747139   -0.12932775
     atom    7 type  1   force =     8.66829979   -5.25790513   -0.35014350
     atom    8 type  1   force =    -0.24700223   10.25781890   -0.06239926
     The local contribution  to forces
     atom    1 type  2   force =    -0.07308986   -0.01558844    0.10448034
     atom    2 type  2   force =     0.02266130   -0.06662348   -0.10480176
     atom    3 type  1   force =    -9.28871184   -5.12834797   -0.27108388
     atom    4 type  1   force =     9.15825056   -4.97789389    0.06195847
     atom    5 type  1   force =     0.04596331   10.16279641   -0.33261944
     atom    6 type  1   force =     8.56127595    5.03299330    0.12916354
     atom    7 type  1   force =    -8.67498598    5.26403868    0.35132162
     atom    8 type  1   force =     0.25047077  -10.26821469    0.06156214
     The core correction contribution to forces
     atom    1 type  2   force =     0.00008074    0.00006808   -0.00026502
     atom    2 type  2   force =     0.00002300    0.00012035    0.00026305
     atom    3 type  1   force =     0.00000000    0.00000000    0.00000000
     atom    4 type  1   force =     0.00000000    0.00000000    0.00000000
     atom    5 type  1   force =     0.00000000    0.00000000    0.00000000
     atom    6 type  1   force =     0.00000000    0.00000000    0.00000000
     atom    7 type  1   force =     0.00000000    0.00000000    0.00000000
     atom    8 type  1   force =     0.00000000    0.00000000    0.00000000
     The Hubbard contrib.    to forces
     atom    1 type  2   force =     0.00000000    0.00000000    0.00000000
     atom    2 type  2   force =     0.00000000    0.00000000    0.00000000
     atom    3 type  1   force =     0.00000000    0.00000000    0.00000000
     atom    4 type  1   force =     0.00000000    0.00000000    0.00000000
     atom    5 type  1   force =     0.00000000    0.00000000    0.00000000
     atom    6 type  1   force =     0.00000000    0.00000000    0.00000000
     atom    7 type  1   force =     0.00000000    0.00000000    0.00000000
     atom    8 type  1   force =     0.00000000    0.00000000    0.00000000
     The SCF correction term to forces
     atom    1 type  2   force =     0.00000004    0.00000216    0.00000054
     atom    2 type  2   force =    -0.00000097   -0.00000187   -0.00000048
     atom    3 type  1   force =    -0.00002459   -0.00000958   -0.00000532
     atom    4 type  1   force =     0.00004019    0.00000144   -0.00002063
     atom    5 type  1   force =    -0.00000499    0.00003395   -0.00000411
     atom    6 type  1   force =     0.00004098   -0.00000028    0.00000968
     atom    7 type  1   force =    -0.00003698    0.00001406    0.00000636
     atom    8 type  1   force =    -0.00000187   -0.00002655    0.00001242

     Total force =     0.004238     Total SCF correction =     0.000091


     Computing stress (Cartesian axis) and pressure

          total   stress  (Ry/bohr**3)                   (kbar)     P=      -74.40
  -0.00065153  -0.00000069   0.00000373          -95.84       -0.10        0.55
  -0.00000069  -0.00064955  -0.00000186           -0.10      -95.55       -0.27
   0.00000373  -0.00000186  -0.00021628            0.55       -0.27      -31.82


     Entering Dynamics;  it =     3   time =  0.00194 pico-seconds

  new lattice vectors (alat unit) :
   0.999909146  -0.000061649   0.000004621
  -0.500007962   0.865893986   0.000004505
   0.000003752   0.000006391   0.812021826
  new unit-cell volume =    943.1480 (a.u.)^3
  new positions in cryst coord
Si       0.666133788   0.334181571   0.253380796
Si       0.333866694   0.665818863   0.746619223
Au       0.332834049   0.168552786   0.748207208
Au       0.831277204   0.167934457   0.752849805
Au       0.832030546   0.661226498   0.747763343
Au       0.662980025   0.832613927   0.250584469
Au       0.170494309   0.832823407   0.250813167
Au       0.170383798   0.336848863   0.249782005
  new positions in cart coord (alat unit)
Si       0.498980771   0.289326366   0.205755320
Si       0.000924429   0.576512738   0.606275647
Au       0.248528882   0.145933106   0.607562880
Au       0.747235938   0.145367000   0.611335071
Au       0.501339244   0.572505534   0.607206979
Au       0.246607138   0.720916122   0.203486873
Au      -0.245938575   0.721127872   0.203670306
Au       0.001942142   0.291666497   0.202830744

     Ekin =     0.13301481 Ry    T = 1555.7 K  Etot =    -1670.89970957
     new unit-cell volume =    943.14800 a.u.^3 (   139.76011 Ang^3 )
     density =     14.70876 g/cm^3

CELL_PARAMETERS (angstrom)
   5.835738030  -0.000359800   0.000026968
  -2.918180611   5.053589607   0.000026294
   0.000021900   0.000037299   4.739177224

ATOMIC_POSITIONS (crystal)
Si            0.6661337881        0.3341815711        0.2533807960
Si            0.3338666935        0.6658188625        0.7466192231
Au            0.3328340492        0.1685527856        0.7482072076
Au            0.8312772041        0.1679344568        0.7528498052
Au            0.8320305460        0.6612264984        0.7477633431
Au            0.6629800253        0.8326139275        0.2505844694
Au            0.1704943086        0.8328234068        0.2508131673
Au            0.1703837982        0.3368488631        0.2497820046



     Writing config-only to output data dir ./out/siau_relax.save/
     NEW-OLD atomic charge density approx. for the potential
     extrapolated charge  121.97959, renormalised to  122.00000

     total cpu time spent up to now is       20.5 secs

     per-process dynamical memory:    33.3 Mb

     Self-consistent Calculation

     iteration #  1     ecut=    45.00 Ry     beta= 0.40
     Davidson diagonalization with overlap
     ethr =  1.00E-06,  avg # of iterations =  6.3

     Threshold (ethr) on eigenvalues was too large:
     Diagonalizing with lowered threshold

     Davidson diagonalization with overlap
     ethr =  6.12E-08,  avg # of iterations =  1.1

     total cpu time spent up to now is       22.1 secs

     total energy              =   -1671.03265762 Ry
     estimated scf accuracy    <       0.00007488 Ry

     iteration #  2     ecut=    45.00 Ry     beta= 0.40
     Davidson diagonalization with overlap
     ethr =  6.14E-08,  avg # of iterations =  2.1

     total cpu time spent up to now is       22.7 secs

     total energy              =   -1671.03271610 Ry
     estimated scf accuracy    <       0.00011270 Ry

     iteration #  3     ecut=    45.00 Ry     beta= 0.40
     Davidson diagonalization with overlap
     ethr =  6.14E-08,  avg # of iterations =  2.0

     total cpu time spent up to now is       23.2 secs

     total energy              =   -1671.03271639 Ry
     estimated scf accuracy    <       0.00001988 Ry

     iteration #  4     ecut=    45.00 Ry     beta= 0.40
     Davidson diagonalization with overlap
     ethr =  1.63E-08,  avg # of iterations =  2.0

     total cpu time spent up to now is       23.7 secs

     total energy              =   -1671.03271783 Ry
     estimated scf accuracy    <       0.00000160 Ry

     iteration #  5     ecut=    45.00 Ry     beta= 0.40
     Davidson diagonalization with overlap
     ethr =  1.31E-09,  avg # of iterations =  2.6

     total cpu time spent up to now is       24.3 secs

     total energy              =   -1671.03271835 Ry
     estimated scf accuracy    <       0.00000045 Ry

     iteration #  6     ecut=    45.00 Ry     beta= 0.40
     Davidson diagonalization with overlap
     ethr =  3.66E-10,  avg # of iterations =  1.1

     total cpu time spent up to now is       24.7 secs

     total energy              =   -1671.03271833 Ry
     estimated scf accuracy    <       0.00000012 Ry

     iteration #  7     ecut=    45.00 Ry     beta= 0.40
     Davidson diagonalization with overlap
     ethr =  9.83E-11,  avg # of iterations =  2.0

     total cpu time spent up to now is       25.3 secs

     total energy              =   -1671.03271836 Ry
     estimated scf accuracy    <          6.1E-09 Ry

     iteration #  8     ecut=    45.00 Ry     beta= 0.40
     Davidson diagonalization with overlap
     ethr =  5.04E-12,  avg # of iterations =  2.0

     total cpu time spent up to now is       25.8 secs

     End of self-consistent calculation

          k = 0.0000 0.0000 0.0000 (  4825 PWs)   bands (ev):

   -88.8630 -88.8592 -88.8550 -88.8530 -88.8511 -88.8481 -40.1929 -40.1682
   -40.1653 -40.1640 -40.1622 -40.1560 -40.1530 -40.1227 -40.1192 -40.1145
   -40.0757 -40.0588 -40.0527 -40.0505 -40.0478 -40.0472 -40.0442 -40.0344
     6.0590   8.2999  10.3850  10.4099  10.4389  10.5591  10.5871  10.8792
    10.8844  11.5131  11.5225  12.0469  12.1498  12.1730  12.2201  12.4192
    12.4375  12.4741  12.6302  12.6393  13.4006  13.4103  13.5343  13.5350
    13.8825  13.9008  13.9755  13.9975  14.3279  14.5915  14.8142  14.8920
    14.9327  15.0304  15.9191  15.9327  16.7787  16.7930  17.2618  19.3492
    19.3655  19.5222  19.5547  21.8502  22.4939  22.5469  22.5522  22.5799
    24.7603

          k =-0.0000-0.0000 0.4105 (  4825 PWs)   bands (ev):

   -88.8619 -88.8592 -88.8555 -88.8527 -88.8516 -88.8485 -40.1904 -40.1814
   -40.1796 -40.1773 -40.1700 -40.1681 -40.1211 -40.1106 -40.0880 -40.0873
   -40.0833 -40.0631 -40.0604 -40.0562 -40.0514 -40.0484 -40.0481 -40.0448
     6.8213   8.0422   9.8161   9.8852  10.6283  10.6296  10.9853  11.0027
    11.3470  11.3562  11.3657  11.4541  11.6728  11.6815  12.3230  12.7567
    13.0537  13.0577  13.1082  13.2151  13.2317  13.2746  13.2923  13.7220
    13.7294  13.8884  13.9040  14.0486  14.4849  14.5140  14.9089  14.9183
    14.9864  15.0090  15.0267  15.4290  16.2487  16.2674  16.5772  19.1122
    19.2209  19.2386  19.5374  19.5550  21.5373  23.2492  23.8295  23.8455
    26.0687

          k = 0.0000 0.3850-0.0000 (  4826 PWs)   bands (ev):

   -88.8618 -88.8595 -88.8557 -88.8534 -88.8509 -88.8481 -40.1724 -40.1614
   -40.1591 -40.1565 -40.1497 -40.1398 -40.1345 -40.1260 -40.1238 -40.1149
   -40.0908 -40.0840 -40.0748 -40.0617 -40.0549 -40.0519 -40.0446 -40.0296
     6.7383   8.2198   9.6887  10.3943  10.7184  10.7751  10.9700  11.0954
    11.2121  11.3994  11.5010  11.6591  11.9658  11.9966  12.0766  12.3150
    12.3461  12.5597  12.6111  12.6689  12.7776  13.1020  13.2316  13.5623
    13.6478  13.7002  13.7436  13.7882  13.9690  14.0732  14.2198  14.7597
    14.7881  15.8664  16.3183  16.5136  16.8687  18.0760  18.4154  18.9084
    19.7529  19.8748  20.5173  20.7013  21.7785  21.9788  21.9876  23.7495
    23.8846

          k = 0.0000 0.3850 0.4105 (  4813 PWs)   bands (ev):

   -88.8610 -88.8589 -88.8562 -88.8530 -88.8518 -88.8485 -40.1795 -40.1731
   -40.1644 -40.1572 -40.1527 -40.1519 -40.1282 -40.1181 -40.1055 -40.0934
   -40.0846 -40.0816 -40.0786 -40.0579 -40.0544 -40.0525 -40.0501 -40.0470
     7.4278   8.3171   9.8053  10.0864  10.6604  10.7323  11.0242  11.1151
    11.4079  11.4260  11.5514  11.6252  11.6731  11.8886  12.0785  12.1620
    12.2831  12.6576  12.6782  12.8965  13.0225  13.1598  13.2035  13.4096
    13.4710  13.4950  13.7508  13.8864  13.9559  14.0473  14.2873  14.3517
    14.6540  14.9542  15.4595  16.0055  16.5836  16.9356  17.8798  19.6170
    19.6789  20.5027  20.8979  21.6398  21.9317  23.0436  23.4563  23.9388
    24.3982

          k = 0.0000 0.3850-0.4105 (  4813 PWs)   bands (ev):

   -88.8610 -88.8589 -88.8562 -88.8530 -88.8518 -88.8485 -40.1798 -40.1720
   -40.1653 -40.1589 -40.1521 -40.1507 -40.1267 -40.1183 -40.1063 -40.0985
   -40.0805 -40.0787 -40.0771 -40.0607 -40.0567 -40.0525 -40.0516 -40.0440
     7.4273   8.3199   9.7834  10.1180  10.6551  10.7142  11.0125  11.1192
    11.4197  11.4483  11.5651  11.6073  11.6696  11.8907  12.0658  12.1576
    12.2796  12.6700  12.6865  12.8992  13.0102  13.1550  13.2158  13.4055
    13.4775  13.4941  13.7462  13.8837  13.9671  14.0412  14.2815  14.3553
    14.6432  14.9554  15.4515  16.0003  16.5997  16.9368  17.8890  19.6286
    19.6976  20.4996  20.8557  21.6457  21.8840  23.0678  23.4730  23.9582
    24.4331

          k = 0.3334 0.1925-0.0000 (  4826 PWs)   bands (ev):

   -88.8620 -88.8595 -88.8555 -88.8533 -88.8506 -88.8486 -40.1744 -40.1631
   -40.1590 -40.1560 -40.1509 -40.1362 -40.1337 -40.1264 -40.1229 -40.1159
   -40.0909 -40.0809 -40.0726 -40.0593 -40.0570 -40.0539 -40.0475 -40.0294
     6.7376   8.2156   9.6913  10.3993  10.7107  10.7752  10.9696  11.1014
    11.2142  11.3901  11.5069  11.6609  11.9643  12.0070  12.0699  12.3045
    12.3785  12.5607  12.5996  12.6642  12.7788  13.0966  13.2353  13.5664
    13.6445  13.7125  13.7494  13.7810  13.9681  14.0733  14.2126  14.7476
    14.7918  15.8699  16.3151  16.4989  16.8695  18.0800  18.4084  18.8837
    19.7426  19.8876  20.5212  20.7306  21.7746  21.9840  22.0038  23.7386
    23.8837

          k = 0.3334 0.1925 0.4105 (  4813 PWs)   bands (ev):

   -88.8612 -88.8591 -88.8556 -88.8532 -88.8514 -88.8490 -40.1821 -40.1738
   -40.1645 -40.1586 -40.1512 -40.1503 -40.1270 -40.1177 -40.1057 -40.0972
   -40.0803 -40.0768 -40.0740 -40.0604 -40.0578 -40.0542 -40.0522 -40.0466
     7.4273   8.3200   9.7815  10.1153  10.6576  10.7121  11.0085  11.1222
    11.4255  11.4444  11.5584  11.6065  11.6736  11.8823  12.0701  12.1542
    12.2850  12.6633  12.6880  12.9017  13.0102  13.1762  13.2253  13.4129
    13.4879  13.5026  13.7395  13.8850  13.9659  14.0327  14.2795  14.3482
    14.6306  14.9485  15.4407  15.9981  16.6155  16.9366  17.8767  19.6293
    19.7013  20.4983  20.8631  21.6534  21.8739  23.0666  23.4742  23.9489
    24.5853

          k = 0.3334 0.1925-0.4105 (  4813 PWs)   bands (ev):

   -88.8612 -88.8590 -88.8557 -88.8531 -88.8514 -88.8490 -40.1818 -40.1747
   -40.1630 -40.1574 -40.1528 -40.1509 -40.1283 -40.1175 -40.1050 -40.0927
   -40.0824 -40.0799 -40.0767 -40.0572 -40.0560 -40.0529 -40.0517 -40.0496
     7.4279   8.3166   9.8041  10.0831  10.6604  10.7339  11.0196  11.1179
    11.4016  11.4329  11.5497  11.6203  11.6759  11.8832  12.0857  12.1589
    12.2866  12.6566  12.6743  12.8982  13.0199  13.1846  13.2098  13.4163
    13.4783  13.5040  13.7431  13.8908  13.9542  14.0390  14.2834  14.3450
    14.6438  14.9477  15.4477  16.0035  16.6002  16.9359  17.8678  19.6168
    19.6831  20.5007  20.9068  21.6471  21.9206  23.0420  23.4561  23.9341
    24.4052

          k = 0.3334 0.5775-0.0000 (  4800 PWs)   bands (ev):

   -88.8612 -88.8597 -88.8561 -88.8532 -88.8505 -88.8487 -40.1614 -40.1557
   -40.1529 -40.1499 -40.1426 -40.1391 -40.1241 -40.1203 -40.1187 -40.1152
   -40.1055 -40.1014 -40.0816 -40.0637 -40.0605 -40.0574 -40.0532 -40.0275
     7.6819   7.7075   9.0311  10.5834  10.5992  10.9388  11.2051  11.3676
    11.3787  11.5519  11.5628  11.5674  11.6791  11.8678  11.8871  12.2152
    12.2393  12.3369  12.5587  12.8244  12.8380  13.0741  13.0877  13.4771
    13.6638  13.6799  13.7398  13.8278  13.8357  13.8460  14.1738  14.1924
    14.7224  16.0825  16.0890  17.8331  17.8614  17.9569  18.3457  18.3627
    18.7767  19.3713  20.8954  21.4629  21.4844  23.3810  23.4101  23.5394
    23.5612

          k = 0.3334 0.5775 0.4105 (  4818 PWs)   bands (ev):

   -88.8607 -88.8589 -88.8560 -88.8532 -88.8515 -88.8491 -40.1676 -40.1654
   -40.1542 -40.1530 -40.1510 -40.1433 -40.1179 -40.1157 -40.1134 -40.1111
   -40.0908 -40.0891 -40.0818 -40.0631 -40.0604 -40.0527 -40.0508 -40.0496
[...]
    11.0100  11.1023  11.2103  11.3451  11.5067  11.6943  11.8876  11.9293
    12.1495  12.2730  12.4711  12.7126  12.8370  12.9564  13.0549  13.3214
    13.4021  13.5232  13.7081  13.8128  13.9892  14.1696  14.4149  14.4711
    14.7524  14.8552  15.4163  15.9128  16.4080  16.9535  18.3260  19.8871
    20.1302  20.5068  20.8286  21.1792  22.5854  23.6381  23.9000  24.3441
    24.5440

          k = 0.3428 0.2106 0.0006 (  4826 PWs)   bands (ev):

   -89.1101 -89.0246 -88.9899 -88.9635 -88.9380 -88.8432 -40.4733 -40.4303
   -40.4036 -40.3610 -40.3334 -40.3150 -40.2868 -40.2450 -40.2372 -40.2154
   -40.2106 -40.1879 -40.1699 -40.1506 -40.1421 -40.1227 -40.0702 -39.9999
     6.6301   8.0675   9.5074  10.2196  10.3556  10.5140  10.8207  10.9100
    11.0476  11.1585  11.3034  11.4679  11.6687  11.7366  11.8787  11.9616
    12.1491  12.2494  12.4065  12.5617  12.6951  12.9448  13.1328  13.2904
    13.4798  13.6184  13.6884  13.7956  13.9598  14.1188  14.1412  14.5301
    14.6641  15.6599  16.1104  16.2993  16.8613  17.8876  18.1150  18.6839
    19.4260  19.9915  20.4095  21.0388  21.9066  22.5052  23.2431  23.7632
    24.5073

          k = 0.3412 0.2145 0.3823 (  4813 PWs)   bands (ev):

   -89.1101 -89.0246 -88.9899 -88.9635 -88.9379 -88.8434 -40.4773 -40.4280
   -40.4026 -40.3622 -40.3305 -40.3153 -40.2859 -40.2470 -40.2358 -40.2115
   -40.2036 -40.1874 -40.1682 -40.1528 -40.1394 -40.1137 -40.0727 -40.0213
     7.1582   8.0461   9.5397  10.0627  10.2703  10.4317  10.6941  10.8798
    10.9742  11.0314  11.2889  11.3974  11.5350  11.6427  11.8345  11.9580
    12.0803  12.2639  12.5430  12.7003  12.8571  12.9427  13.1280  13.3948
    13.4894  13.5911  13.7530  13.9209  14.0398  14.1559  14.2521  14.4645
    14.5841  14.8096  15.1500  16.0743  16.5955  17.2094  18.1755  19.7314
    20.1513  20.5104  20.9155  21.3608  22.3868  23.2453  23.8640  24.0940
    24.6318

          k = 0.3443 0.2067-0.3812 (  4813 PWs)   bands (ev):

   -89.1101 -89.0246 -88.9899 -88.9635 -88.9379 -88.8434 -40.4774 -40.4275
   -40.4027 -40.3622 -40.3306 -40.3152 -40.2860 -40.2422 -40.2378 -40.2156
   -40.2074 -40.1806 -40.1729 -40.1515 -40.1367 -40.1142 -40.0733 -40.0213
     7.1586   8.0344   9.6388   9.7514  10.3939  10.6191  10.7305  10.7908
    10.9881  11.1358  11.2318  11.4151  11.4340  11.7609  11.8041  11.9908
    12.0849  12.3291  12.4587  12.7313  12.8370  12.9469  13.0776  13.2436
    13.4380  13.6083  13.7295  13.9126  13.9940  14.0996  14.2558  14.4402
    14.7349  14.9153  15.2044  15.9697  16.6717  17.1026  18.2945  19.6811
    19.9622  20.4494  21.0172  21.7215  22.4077  23.1256  23.7879  24.3507
    24.4544

          k = 0.3506 0.6183 0.0043 (  4800 PWs)   bands (ev):

   -89.1101 -89.0246 -88.9899 -88.9633 -88.9382 -88.8432 -40.4700 -40.4309
   -40.4014 -40.3568 -40.3278 -40.2981 -40.2872 -40.2445 -40.2384 -40.2190
   -40.2072 -40.1957 -40.1844 -40.1532 -40.1495 -40.1247 -40.0669 -39.9995
     7.4595   7.7573   9.0710  10.1717  10.4456  10.6271  10.7729  10.9099
    11.1075  11.1943  11.3389  11.3907  11.5592  11.6648  11.7559  11.8639
    12.0705  12.2169  12.3411  12.5718  12.6914  12.8402  13.0119  13.1835
    13.3868  13.4825  13.6694  13.7940  13.8406  13.9252  14.1004  14.3155
    14.6032  16.0382  16.2046  17.3390  17.7601  18.0013  18.2694  18.3441
    18.4879  19.1766  21.0614  21.4770  21.9962  23.1942  23.5207  24.2246
    24.3466

          k = 0.3490 0.6222 0.3860 (  4818 PWs)   bands (ev):

   -89.1100 -89.0246 -88.9899 -88.9633 -88.9380 -88.8434 -40.4699 -40.4279
   -40.4006 -40.3569 -40.3259 -40.3010 -40.2877 -40.2488 -40.2402 -40.2217
   -40.2056 -40.1927 -40.1800 -40.1524 -40.1373 -40.1162 -40.0703 -40.0207
     7.8278   8.0023   9.5153   9.9833  10.1399  10.5345  10.7355  10.8993
    10.9607  11.0769  11.1376  11.3049  11.5356  11.6197  11.7360  11.8834
    12.0871  12.2004  12.4181  12.5741  12.7763  12.8740  13.0177  13.1603
    13.3606  13.4832  13.6122  13.7376  13.8871  13.9353  14.2951  14.4304
    14.5995  14.9253  15.1050  15.2747  17.7480  18.3064  19.0825  19.6514
    19.8716  20.6712  20.8330  21.3622  23.0357  23.4281  24.0796  24.4763
    24.8612

          k = 0.3521 0.6144-0.3775 (  4818 PWs)   bands (ev):

   -89.1100 -89.0246 -88.9899 -88.9633 -88.9380 -88.8434 -40.4719 -40.4282
   -40.4008 -40.3570 -40.3247 -40.3004 -40.2873 -40.2428 -40.2395 -40.2214
   -40.2080 -40.1935 -40.1790 -40.1554 -40.1402 -40.1149 -40.0698 -40.0207
     7.7996   8.0638   9.5546   9.7369  10.2869  10.6060  10.7839  10.8583
    10.9437  11.0420  11.1302  11.3627  11.4950  11.5765  11.6664  11.8692
    12.0080  12.2406  12.3109  12.6196  12.8602  12.9441  13.1074  13.1987
    13.3653  13.5761  13.6451  13.7898  13.8992  14.0181  14.2252  14.4370
    14.5532  14.6436  15.0290  15.3099  17.8729  18.3378  19.1242  19.5836
    20.1075  20.4716  20.9519  21.0826  22.9756  23.5692  24.0247  24.4400
    24.7335

          k = 0.3350-0.1971-0.0031 (  4826 PWs)   bands (ev):

   -89.1101 -89.0247 -88.9900 -88.9633 -88.9380 -88.8432 -40.4703 -40.4396
   -40.4053 -40.3635 -40.3381 -40.3000 -40.2935 -40.2424 -40.2335 -40.2157
   -40.2095 -40.1916 -40.1848 -40.1475 -40.1355 -40.1228 -40.0617 -39.9992
     6.5815   7.9926   9.5527  10.2632  10.3964  10.5922  10.7578  10.9318
    11.0232  11.1345  11.3322  11.4811  11.5981  11.7190  11.9116  12.0849
    12.1804  12.3017  12.4866  12.5789  12.7594  12.8627  13.0559  13.2001
    13.3810  13.4769  13.6669  13.7745  13.9987  14.1090  14.1869  14.3528
    14.8731  15.7461  15.9391  16.3065  17.0019  18.1603  18.3346  18.7976
    19.3087  20.1755  20.4571  20.5494  21.7764  22.4462  22.8687  23.9877
    24.2613

          k = 0.3334-0.1932 0.3786 (  4813 PWs)   bands (ev):

   -89.1100 -89.0247 -88.9900 -88.9633 -88.9379 -88.8433 -40.4724 -40.4380
   -40.4039 -40.3654 -40.3321 -40.3014 -40.2939 -40.2452 -40.2349 -40.2142
   -40.2062 -40.1900 -40.1829 -40.1448 -40.1326 -40.1118 -40.0652 -40.0199
     7.0808   8.0317   9.4160   9.9601  10.3937  10.6033  10.6608  10.9400
    11.0126  11.1127  11.1858  11.4199  11.5334  11.7391  11.8455  12.0538
    12.2008  12.3385  12.5662  12.6656  12.7860  12.9419  13.0875  13.2130
    13.3232  13.5160  13.6969  13.7914  13.8645  14.1441  14.2474  14.5303
    14.7885  14.9980  15.4022  15.9964  16.6433  16.9408  18.6332  19.7992
    20.0204  20.4009  20.8853  21.4129  22.4623  23.1924  23.4622  24.0545
    24.2500

          k = 0.3366-0.2010-0.3849 (  4813 PWs)   bands (ev):

   -89.1100 -89.0247 -88.9900 -88.9633 -88.9379 -88.8433 -40.4701 -40.4382
   -40.4043 -40.3641 -40.3330 -40.3011 -40.2962 -40.2496 -40.2385 -40.2140
   -40.2016 -40.1900 -40.1825 -40.1401 -40.1336 -40.1125 -40.0655 -40.0198
     7.1440   7.9053   9.4414  10.0214  10.3701  10.5197  10.6979  10.9267
    10.9852  11.1579  11.2926  11.4844  11.5881  11.6480  11.7726  12.1006
    12.1926  12.4340  12.5560  12.6605  12.7346  12.9488  13.1018  13.1317
    13.2377  13.5524  13.6520  13.8478  13.8992  13.9926  14.3058  14.5726
    14.7176  15.0638  15.3118  16.0366  16.8118  16.9923  18.5939  19.7688
    20.1454  20.3640  20.6979  21.5005  22.1894  23.3442  23.5351  23.8417
    24.2432

     the Fermi energy is    17.0232 ev

!    total energy              =   -1671.01593786 Ry
     estimated scf accuracy    <          2.5E-10 Ry
     smearing contrib. (-TS)   =      -0.00104747 Ry
     internal energy E=F+TS    =   -1671.01489039 Ry

     convergence has been achieved in  11 iterations

     Forces acting on atoms (cartesian axes, Ry/au):

     atom    1 type  2   force =     0.00475198    0.01298671   -0.00441881
     atom    2 type  2   force =    -0.01148829   -0.01141890   -0.00580330
     atom    3 type  1   force =     0.05208586    0.01877768   -0.00352328
     atom    4 type  1   force =    -0.03095621   -0.02503459   -0.01721748
     atom    5 type  1   force =    -0.01353972    0.02828618   -0.00577120
     atom    6 type  1   force =     0.04406502   -0.00605308    0.04575603
     atom    7 type  1   force =    -0.03580905   -0.02574547   -0.00954978
     atom    8 type  1   force =    -0.00910959    0.00820146    0.00052783
     The non-local contrib.  to forces
     atom    1 type  2   force =    -0.00319760   -0.01607614    0.00216781
     atom    2 type  2   force =    -0.01521113   -0.04416080   -0.04930968
     atom    3 type  1   force =     0.11961074   -0.05323790   -0.00872158
     atom    4 type  1   force =     0.00024828   -0.01341916   -0.00493405
     atom    5 type  1   force =    -0.09148907    0.09484453    0.01063556
     atom    6 type  1   force =     0.11020485   -0.02792322    0.04534151
     atom    7 type  1   force =    -0.05551760   -0.03465220   -0.05586550
     atom    8 type  1   force =    -0.05666244    0.02362895    0.01524096
     The ionic contribution  to forces
     atom    1 type  2   force =     0.44991629    1.78171948   -0.24939479
     atom    2 type  2   force =    -0.76509633   -0.06835319    1.04962009
     atom    3 type  1   force =    11.41036065    5.39672877    1.13746781
     atom    4 type  1   force =   -11.54947540   -0.83223587   -4.27863946
     atom    5 type  1   force =    -0.92267433   -3.82796667    3.16853071
     atom    6 type  1   force =     0.34940369   -5.16013968    3.43111792
     atom    7 type  1   force =     1.54054725   -7.57286582   -5.12893958
     atom    8 type  1   force =    -0.51298183   10.28311297    0.87023730
     The local contribution  to forces
     atom    1 type  2   force =    -0.44202907   -1.75312616    0.24283930
     atom    2 type  2   force =     0.76607001    0.09532686   -1.01129858
     atom    3 type  1   force =   -11.47785600   -5.32466678   -1.13227796
     atom    4 type  1   force =    11.51822160    0.82063264    4.26635599
     atom    5 type  1   force =     1.00063076    3.76136348   -3.18495519
     atom    6 type  1   force =    -0.41558560    5.18198947   -3.43070299
     atom    7 type  1   force =    -1.52079819    7.58175332    5.17524762
     atom    8 type  1   force =     0.56054545  -10.29849182   -0.88495844
     The core correction contribution to forces
     atom    1 type  2   force =     0.00006280    0.00047003   -0.00004008
     atom    2 type  2   force =     0.00274941    0.00576770    0.00517592
     atom    3 type  1   force =     0.00000000    0.00000000    0.00000000
     atom    4 type  1   force =     0.00000000    0.00000000    0.00000000
     atom    5 type  1   force =     0.00000000    0.00000000    0.00000000
     atom    6 type  1   force =     0.00000000    0.00000000    0.00000000
     atom    7 type  1   force =     0.00000000    0.00000000    0.00000000
     atom    8 type  1   force =     0.00000000    0.00000000    0.00000000
     The Hubbard contrib.    to forces
     atom    1 type  2   force =     0.00000000    0.00000000    0.00000000
     atom    2 type  2   force =     0.00000000    0.00000000    0.00000000
     atom    3 type  1   force =     0.00000000    0.00000000    0.00000000
     atom    4 type  1   force =     0.00000000    0.00000000    0.00000000
     atom    5 type  1   force =     0.00000000    0.00000000    0.00000000
     atom    6 type  1   force =     0.00000000    0.00000000    0.00000000
     atom    7 type  1   force =     0.00000000    0.00000000    0.00000000
     atom    8 type  1   force =     0.00000000    0.00000000    0.00000000
     The SCF correction term to forces
     atom    1 type  2   force =    -0.00000012   -0.00000013    0.00000023
     atom    2 type  2   force =     0.00000006    0.00000090    0.00000024
     atom    3 type  1   force =    -0.00002921   -0.00004604   -0.00000027
     atom    4 type  1   force =     0.00004963   -0.00001183   -0.00000867
     atom    5 type  1   force =    -0.00000676    0.00004521    0.00000901
     atom    6 type  1   force =     0.00004239    0.00002073   -0.00000913
     atom    7 type  1   force =    -0.00004018    0.00001960   -0.00000105
     atom    8 type  1   force =    -0.00001045   -0.00004826   -0.00000071

     Total force =     0.112880     Total SCF correction =     0.000121


     Computing stress (Cartesian axis) and pressure

          total   stress  (Ry/bohr**3)                   (kbar)     P=      -10.73
  -0.00017625   0.00003228  -0.00002382          -25.93        4.75       -3.50
   0.00003228  -0.00003687  -0.00015060            4.75       -5.42      -22.15
  -0.00002382  -0.00015060  -0.00000565           -3.50      -22.15       -0.83


     Entering Dynamics;  it =   100   time =  0.09579 pico-seconds

  new lattice vectors (alat unit) :
   0.984184397  -0.018813120   0.004197724
  -0.508384838   0.827316508  -0.010965502
   0.003408765  -0.008314031   0.874963385
  new unit-cell volume =    944.4033 (a.u.)^3
  new positions in cryst coord
Si       0.683549990   0.340105638   0.252640407
Si       0.355620168   0.683405894   0.713349927
Au       0.247004011   0.174459051   0.722496573
Au       0.781910713   0.137455715   0.832857501
Au       0.842648712   0.606461562   0.697804286
Au       0.684702810   0.870195213   0.278164675
Au       0.215950889   0.860189149   0.251411841
Au       0.222197585   0.347886797   0.222114568
  new positions in cart coord (alat unit)
Si       0.500695876   0.266414840   0.220191031
Si       0.004994267   0.552771839   0.618153974
Au       0.156867978   0.133679078   0.631281871
Au       0.702502937   0.092084799   0.730494793
Au       0.523384502   0.480081244   0.607440251
Au       0.232427968   0.704732798   0.236715972
Au      -0.223914622   0.705495727   0.211450252
Au       0.042580159   0.281785593   0.191460085

     Ekin =     0.11652429 Ry    T = 1265.3 K  Etot =    -1670.89941356
     new unit-cell volume =    944.40334 a.u.^3 (   139.94614 Ang^3 )
     density =     14.68921 g/cm^3

CELL_PARAMETERS (angstrom)
   5.743964176  -0.109798417   0.024499041
  -2.967070306   4.828441090  -0.063997613
   0.019894465  -0.048522914   5.106521052

ATOMIC_POSITIONS (crystal)
Si            0.6835499900        0.3401056381        0.2526404073
Si            0.3556201679        0.6834058943        0.7133499274
Au            0.2470040106        0.1744590508        0.7224965733
Au            0.7819107127        0.1374557146        0.8328575008
Au            0.8426487122        0.6064615623        0.6978042857
Au            0.6847028104        0.8701952125        0.2781646754
Au            0.2159508895        0.8601891490        0.2514118414
Au            0.2221975845        0.3478867970        0.2221145679



     Maximum number of iterations reached, stopping

     Writing all to output data dir ./out/siau_relax.save/

     init_run     :      1.11s CPU      0.91s WALL (       1 calls)
     electrons    :   1050.63s CPU    606.77s WALL (     100 calls)
     update_pot   :     26.78s CPU     14.54s WALL (      99 calls)
     forces       :     28.59s CPU     14.91s WALL (     100 calls)
     stress       :    115.15s CPU     60.09s WALL (     100 calls)

     Called by init_run:
     wfcinit      :      0.29s CPU      0.15s WALL (       1 calls)
     potinit      :      0.43s CPU      0.36s WALL (       1 calls)
     hinit0       :      0.37s CPU      0.37s WALL (       1 calls)

     Called by electrons:
     c_bands      :    909.90s CPU    528.73s WALL (    1017 calls)
     sum_band     :    119.07s CPU     65.66s WALL (    1017 calls)
     v_of_rho     :      6.59s CPU      3.49s WALL (    1107 calls)
     newd         :     11.98s CPU      6.26s WALL (    1107 calls)
     mix_rho      :      1.46s CPU      0.88s WALL (    1017 calls)

     Called by c_bands:
     init_us_2    :      5.62s CPU      3.68s WALL (   15645 calls)
     init_us_2:cp :      5.57s CPU      3.65s WALL (   15645 calls)
     cegterg      :    885.02s CPU    503.40s WALL (    7119 calls)

     Called by *egterg:
     cdiaghg      :    229.86s CPU    128.71s WALL (   23112 calls)
     h_psi        :    494.68s CPU    278.49s WALL (   23882 calls)
     s_psi        :     48.23s CPU     24.40s WALL (   23882 calls)
     g_psi        :      0.61s CPU      0.38s WALL (   16756 calls)

     Called by h_psi:
     h_psi:calbec :     66.50s CPU     34.99s WALL (   23882 calls)
     vloc_psi     :    372.86s CPU    215.38s WALL (   23882 calls)
     add_vuspsi   :     54.58s CPU     27.64s WALL (   23882 calls)

     General routines
     calbec       :    103.86s CPU     54.63s WALL (   34501 calls)
     fft          :      5.87s CPU      3.41s WALL (   16800 calls)
     ffts         :      0.90s CPU      0.60s WALL (    2124 calls)
     fftw         :    407.62s CPU    234.98s WALL ( 3213307 calls)
     interpolate  :      1.05s CPU      0.68s WALL (    1107 calls)

     Parallel routines

     PWSCF        :  20m25.73s CPU  11m41.16s WALL


   This run was terminated on:   8:58:36  15Jan2025            

=------------------------------------------------------------------------------=
   JOB DONE.
=------------------------------------------------------------------------------=
Note: The following floating-point exceptions are signalling: IEEE_INVALID_FLAG IEEE_DENORMAL
Note: The following floating-point exceptions are signalling: IEEE_INVALID_FLAG IEEE_DENORMAL
Note: The following floating-point exceptions are signalling: IEEE_INVALID_FLAG IEEE_DENORMAL
Note: The following floating-point exceptions are signalling: IEEE_INVALID_FLAG IEEE_DENORMAL
Note: The following floating-point exceptions are signalling: IEEE_INVALID_FLAG IEEE_DENORMAL
Note: The following floating-point exceptions are signalling: IEEE_INVALID_FLAG IEEE_DENORMAL
Note: The following floating-point exceptions are signalling: IEEE_INVALID_FLAG IEEE_DENORMAL
Note: The following floating-point exceptions are signalling: IEEE_INVALID_FLAG IEEE_DENORMAL
Note: The following floating-point exceptions are signalling: IEEE_INVALID_FLAG IEEE_DENORMAL
Note: The following floating-point exceptions are signalling: IEEE_INVALID_FLAG IEEE_DENORMAL
Note: The following floating-point exceptions are signalling: IEEE_INVALID_FLAG IEEE_DENORMAL
Note: The following floating-point exceptions are signalling: IEEE_INVALID_FLAG IEEE_DENORMAL
Note: The following floating-point exceptions are signalling: IEEE_INVALID_FLAG IEEE_DENORMAL
Note: The following floating-point exceptions are signalling: IEEE_INVALID_FLAG IEEE_DENORMAL
Note: The following floating-point exceptions are signalling: IEEE_INVALID_FLAG IEEE_DENORMAL
Note: The following floating-point exceptions are signalling: IEEE_INVALID_FLAG IEEE_DENORMAL
Note: The following floating-point exceptions are signalling: IEEE_INVALID_FLAG IEEE_DENORMAL
Note: The following floating-point exceptions are signalling: IEEE_INVALID_FLAG IEEE_DENORMAL
Note: The following floating-point exceptions are signalling: IEEE_INVALID_FLAG IEEE_DENORMAL
Note: The following floating-point exceptions are signalling: IEEE_INVALID_FLAG IEEE_DENORMAL
Note: The following floating-point exceptions are signalling: IEEE_INVALID_FLAG IEEE_DENORMAL
Note: The following floating-point exceptions are signalling: IEEE_INVALID_FLAG IEEE_DENORMAL
Note: The following floating-point exceptions are signalling: IEEE_INVALID_FLAG IEEE_DENORMAL
Note: The following floating-point exceptions are signalling: IEEE_INVALID_FLAG IEEE_DENORMAL
Note: The following floating-point exceptions are signalling: IEEE_INVALID_FLAG IEEE_DENORMAL
Note: The following floating-point exceptions are signalling: IEEE_INVALID_FLAG IEEE_DENORMAL
Note: The following floating-point exceptions are signalling: IEEE_INVALID_FLAG IEEE_DENORMAL
Note: The following floating-point exceptions are signalling: IEEE_INVALID_FLAG IEEE_DENORMAL
Note: The following floating-point exceptions are signalling: IEEE_INVALID_FLAG IEEE_DENORMAL
Note: The following floating-point exceptions are signalling: IEEE_INVALID_FLAG IEEE_DENORMAL
Note: The following floating-point exceptions are signalling: IEEE_INVALID_FLAG IEEE_DENORMAL
Note: The following floating-point exceptions are signalling: IEEE_INVALID_FLAG IEEE_DENORMAL
