
     Program PWSCF v.7.2 starts on 15Jan2025 at  8:10:28 

     This program is part of the open-source Quantum ESPRESSO suite
     for quantum simulation of materials; please cite
         "P. Giannozzi et al., J. Phys.:Condens. Matter 21 395502 (2009);
         "P. Giannozzi et al., J. Phys.:Condens. Matter 29 465901 (2017);
         "P. Giannozzi et al., J. Chem. Phys. 152 154105 (2020);
          URL http://www.quantum-espresso.org", 
     in publications or presentations arising from this work. More details at
     http://www.quantum-espresso.org/quote

     Parallel version (MPI & OpenMP), running on      64 processor cores
     Number of MPI processes:                32
     Threads/MPI process:                     2

     MPI processes distributed on     1 nodes
     242400 MiB available memory on the printing compute node when the environment starts

     Waiting for input...
     Reading input from standard input

     Current dimensions of program PWSCF are:
     Max number of different atomic species (ntypx) = 10
     Max number of k-points (npk) =  40000
     Max angular momentum in pseudopotentials (lmaxx) =  4
     Found identity + (  0.0000 -0.5000 -0.5000) symmetry
     This is a supercell, fractional translations are disabled

     K-points division:     npool     =       2
     R & G space division:  proc/nbgrp/npool/nimage =      16
     Subspace diagonalization in iterative solution of the eigenvalue problem:
     a serial algorithm will be used


     Parallelization info
     --------------------
     sticks:   dense  smooth     PW     G-vecs:    dense   smooth      PW
     Min         184     138     37                 7517     4886     691
     Max         185     139     38                 7519     4891     696
     Sum        2957    2217    593               120281    78205   11067

     Using Slab Decomposition



     bravais-lattice index     =            0
     lattice parameter (alat)  =      12.4183  a.u.
     unit-cell volume          =    1915.0662 (a.u.)^3
     number of atoms/cell      =           16
     number of atomic types    =            2
     number of electrons       =       244.00
     number of Kohn-Sham states=          146
     kinetic-energy cutoff     =      45.0000  Ry
     charge density cutoff     =     240.0000  Ry
     scf convergence threshold =      1.6E-09
     mixing beta               =       0.4000
     number of iterations used =            8  plain     mixing
     energy convergence thresh.=      0.0E+00
     force convergence thresh. =      0.0E+00
     press convergence thresh. =      0.0E+00
     Exchange-correlation= PBESOL
                           (   1   4  10   8   0   0   0)
     nstep                     =           50


     celldm(1)=  12.418275  celldm(2)=   0.000000  celldm(3)=   0.000000
     celldm(4)=   0.000000  celldm(5)=   0.000000  celldm(6)=   0.000000

     crystal axes: (cart. coord. in units of alat)
               a(1) = (   1.000000   0.000000   0.000000 )  
               a(2) = (   0.000000   1.000000   0.000000 )  
               a(3) = (   0.000000   0.000000   1.000000 )  

     reciprocal axes: (cart. coord. in units 2 pi/alat)
               b(1) = (  1.000000  0.000000  0.000000 )  
               b(2) = (  0.000000  1.000000  0.000000 )  
               b(3) = (  0.000000  0.000000  1.000000 )  


     PseudoPot. # 1 for Au read from file:
     ./pseudo/Au_ONCV_PBEsol-1.0.upf
     MD5 check sum: 107326c382cdbc7cf544f5ac04d81467
     Pseudo is Norm-conserving, Zval = 19.0
     Generated using ONCVPSP code by D. R. Hamann
     Using radial grid of 1262 points,  8 beta functions with: 
                l(1) =   0
                l(2) =   0
                l(3) =   1
                l(4) =   1
                l(5) =   2
                l(6) =   2
                l(7) =   3
                l(8) =   3

     PseudoPot. # 2 for Si read from file:
     ./pseudo/Si.pbesol-n-rrkjus_psl.1.0.0.UPF
     MD5 check sum: c4212819de858c94c3a1644338846ac9
     Pseudo is Ultrasoft + core correction, Zval =  4.0
     Generated using "atomic" code by A. Dal Corso  v.6.0 svn rev. 13079
     Using radial grid of 1141 points,  6 beta functions with: 
                l(1) =   0
                l(2) =   0
                l(3) =   1
                l(4) =   1
                l(5) =   2
                l(6) =   2
     Q(r) pseudized with 0 coefficients 


     atomic species   valence    mass     pseudopotential
        Au            19.00   196.96657     Au( 1.00)
        Si             4.00    28.08550     Si( 1.00)

      cell mass = 188.14894 AMU 

     No symmetry found



   Cartesian axes

     site n.     atom                  positions (alat units)
         1           Si  tau(   1) = (   0.0000000   0.0000000   0.0000000  )
         2           Si  tau(   2) = (   0.0000000   0.5000000   0.5000000  )
         3           Si  tau(   3) = (   0.5000000   0.0000000   0.5000000  )
         4           Si  tau(   4) = (   0.5000000   0.5000000   0.0000000  )
         5           Au  tau(   5) = (   0.2500000   0.7500000   0.7500000  )
         6           Au  tau(   6) = (   0.2500000   0.2500000   0.7500000  )
         7           Au  tau(   7) = (   0.5000000   0.0000000   0.0000000  )
         8           Au  tau(   8) = (   0.2500000   0.2500000   0.2500000  )
         9           Au  tau(   9) = (   0.2500000   0.7500000   0.2500000  )
        10           Au  tau(  10) = (   0.5000000   0.5000000   0.5000000  )
        11           Au  tau(  11) = (   0.7500000   0.7500000   0.2500000  )
        12           Au  tau(  12) = (   0.7500000   0.2500000   0.2500000  )
        13           Au  tau(  13) = (   0.0000000   0.0000000   0.5000000  )
        14           Au  tau(  14) = (   0.7500000   0.2500000   0.7500000  )
        15           Au  tau(  15) = (   0.7500000   0.7500000   0.7500000  )
        16           Au  tau(  16) = (   0.0000000   0.5000000   0.0000000  )

     number of k points=    14  Marzari-Vanderbilt smearing, width (Ry)=  0.0200
                       cart. coord. in units 2pi/alat
        k(    1) = (   0.0000000   0.0000000   0.0000000), wk =   0.0740741
        k(    2) = (   0.0000000   0.0000000   0.3333333), wk =   0.1481481
        k(    3) = (   0.0000000   0.3333333   0.0000000), wk =   0.1481481
        k(    4) = (   0.0000000   0.3333333   0.3333333), wk =   0.1481481
        k(    5) = (   0.0000000   0.3333333  -0.3333333), wk =   0.1481481
        k(    6) = (   0.3333333   0.0000000   0.0000000), wk =   0.1481481
        k(    7) = (   0.3333333   0.0000000   0.3333333), wk =   0.1481481
        k(    8) = (   0.3333333   0.0000000  -0.3333333), wk =   0.1481481
        k(    9) = (   0.3333333   0.3333333   0.0000000), wk =   0.1481481
        k(   10) = (   0.3333333   0.3333333   0.3333333), wk =   0.1481481
        k(   11) = (   0.3333333   0.3333333  -0.3333333), wk =   0.1481481
        k(   12) = (   0.3333333  -0.3333333   0.0000000), wk =   0.1481481
        k(   13) = (   0.3333333  -0.3333333   0.3333333), wk =   0.1481481
        k(   14) = (   0.3333333  -0.3333333  -0.3333333), wk =   0.1481481

     Dense  grid:   120281 G-vectors     FFT dimensions: (  64,  64,  64)

     Smooth grid:    78205 G-vectors     FFT dimensions: (  54,  54,  54)

     Estimated max dynamical RAM per process >      44.59 MB

     Estimated total dynamical RAM >       1.36 GB

     Initial potential from superposition of free atoms

     starting charge     243.9969, renormalised to     244.0000
     Starting wfcs are  136 randomized atomic wfcs +   10 random wfcs

     total cpu time spent up to now is        1.6 secs

     per-process dynamical memory:    44.3 Mb

     Self-consistent Calculation

     iteration #  1     ecut=    45.00 Ry     beta= 0.40
     Davidson diagonalization with overlap
     ethr =  1.00E-02,  avg # of iterations =  3.0

     Threshold (ethr) on eigenvalues was too large:
     Diagonalizing with lowered threshold

     Davidson diagonalization with overlap
     ethr =  3.63E-05,  avg # of iterations =  4.4

     total cpu time spent up to now is        7.1 secs

     total energy              =   -3342.04088863 Ry
     estimated scf accuracy    <       0.08074978 Ry

     iteration #  2     ecut=    45.00 Ry     beta= 0.40
     Davidson diagonalization with overlap
     ethr =  3.31E-05,  avg # of iterations =  2.1

     total cpu time spent up to now is        9.5 secs

     total energy              =   -3342.05567101 Ry
     estimated scf accuracy    <       0.01363976 Ry

     iteration #  3     ecut=    45.00 Ry     beta= 0.40
     Davidson diagonalization with overlap
     ethr =  5.59E-06,  avg # of iterations =  4.8

     total cpu time spent up to now is       12.4 secs

     total energy              =   -3342.05650518 Ry
     estimated scf accuracy    <       0.00345669 Ry

     iteration #  4     ecut=    45.00 Ry     beta= 0.40
     Davidson diagonalization with overlap
     ethr =  1.42E-06,  avg # of iterations =  2.0

     total cpu time spent up to now is       14.6 secs

     total energy              =   -3342.05667827 Ry
     estimated scf accuracy    <       0.00044363 Ry

     iteration #  5     ecut=    45.00 Ry     beta= 0.40
     Davidson diagonalization with overlap
     ethr =  1.82E-07,  avg # of iterations =  2.0

     total cpu time spent up to now is       16.8 secs

     total energy              =   -3342.05671917 Ry
     estimated scf accuracy    <       0.00004180 Ry

     iteration #  6     ecut=    45.00 Ry     beta= 0.40
     Davidson diagonalization with overlap
     ethr =  1.71E-08,  avg # of iterations =  2.0

     total cpu time spent up to now is       19.4 secs

     total energy              =   -3342.05672539 Ry
     estimated scf accuracy    <       0.00000581 Ry

     iteration #  7     ecut=    45.00 Ry     beta= 0.40
     Davidson diagonalization with overlap
     ethr =  2.38E-09,  avg # of iterations =  2.0

     total cpu time spent up to now is       21.9 secs

     total energy              =   -3342.05672688 Ry
     estimated scf accuracy    <       0.00000119 Ry

     iteration #  8     ecut=    45.00 Ry     beta= 0.40
     Davidson diagonalization with overlap
     ethr =  4.89E-10,  avg # of iterations =  2.0

     total cpu time spent up to now is       24.0 secs

     total energy              =   -3342.05672682 Ry
     estimated scf accuracy    <       0.00000056 Ry

     iteration #  9     ecut=    45.00 Ry     beta= 0.40
     Davidson diagonalization with overlap
     ethr =  2.31E-10,  avg # of iterations =  2.0

     total cpu time spent up to now is       26.4 secs

     total energy              =   -3342.05672692 Ry
     estimated scf accuracy    <       0.00000001 Ry

     iteration # 10     ecut=    45.00 Ry     beta= 0.40
     Davidson diagonalization with overlap
     ethr =  5.65E-12,  avg # of iterations =  3.3

     total cpu time spent up to now is       29.1 secs

     total energy              =   -3342.05672692 Ry
     estimated scf accuracy    <          4.9E-09 Ry

     iteration # 11     ecut=    45.00 Ry     beta= 0.40
     Davidson diagonalization with overlap
     ethr =  1.99E-12,  avg # of iterations =  2.0

     total cpu time spent up to now is       31.4 secs

     End of self-consistent calculation

          k = 0.0000 0.0000 0.0000 (  9771 PWs)   bands (ev):

   -89.2523 -89.2516 -89.2516 -89.2516 -89.2512 -89.2512 -89.2512 -89.2507
   -88.9999 -88.9999 -88.9999 -88.9997 -40.5267 -40.5267 -40.5267 -40.5267
   -40.5266 -40.5266 -40.5112 -40.5112 -40.5112 -40.5074 -40.5074 -40.5074
   -40.4996 -40.4996 -40.4996 -40.4867 -40.4867 -40.4867 -40.4867 -40.4867
   -40.4867 -40.4849 -40.4849 -40.4849 -40.2588 -40.2588 -40.2588 -40.2472
   -40.2472 -40.2472 -40.2409 -40.2409 -40.2409 -40.2409 -40.2409 -40.2409
     5.9012   8.0489   8.0489   8.0490   9.6677   9.6677   9.6677  10.2742
    10.2742  10.2742  10.5688  10.5688  10.5688  10.6014  10.6014  10.8068
    10.8068  10.8068  11.2379  11.2380  11.2380  11.2380  11.2380  11.2380
    11.6064  11.6064  11.6064  11.6744  11.6744  11.6744  12.1175  12.1175
    12.1175  12.1175  12.1175  12.1175  12.6655  12.6655  12.6655  13.1063
    13.1063  13.1063  13.4424  13.4424  13.4424  13.4808  13.4808  13.4808
    13.5606  13.5606  13.5606  13.7671  13.7671  13.7671  13.7778  13.7778
    13.8088  13.8088  14.1362  14.1362  14.1362  14.1362  14.1362  14.1362
    14.2659  14.2659  14.2659  14.2819  14.2819  14.2819  14.2819  14.2819
    14.2819  14.9121  17.2381  17.2381  17.2381  17.9349  17.9349  17.9349
    18.6365  18.6365  18.6365  19.2071  20.8680  20.8680  20.8680  22.7297
    22.7297  22.7297  23.1389  23.1389  23.1389  24.0057  24.5941  24.5941
    24.5941  24.5941

          k = 0.0000 0.0000 0.3333 (  9778 PWs)   bands (ev):

   -89.2521 -89.2518 -89.2515 -89.2515 -89.2513 -89.2513 -89.2511 -89.2508
   -88.9999 -88.9999 -88.9998 -88.9997 -40.5274 -40.5274 -40.5230 -40.5230
   -40.5172 -40.5172 -40.5144 -40.5144 -40.5104 -40.5104 -40.5082 -40.5024
   -40.5018 -40.4972 -40.4972 -40.4942 -40.4942 -40.4905 -40.4888 -40.4888
   -40.4862 -40.4862 -40.4853 -40.4853 -40.2560 -40.2538 -40.2538 -40.2502
   -40.2456 -40.2456 -40.2449 -40.2449 -40.2424 -40.2424 -40.2409 -40.2409
     6.3201   7.3969   8.1122   8.1122   9.3913   9.8721   9.8721  10.0647
    10.1529  10.1529  10.5458  10.5458  10.6593  10.7746  10.9053  10.9053
    11.0050  11.1030  11.1030  11.2138  11.2308  11.3265  11.3265  11.4121
    11.4554  11.4554  11.8283  11.8283  11.8665  11.8665  11.9232  11.9232
    12.1270  12.1270  12.4152  12.4152  12.5504  12.5504  12.8085  12.8085
    12.8363  12.8363  12.9395  13.0239  13.0239  13.0496  13.0690  13.1716
    13.1716  13.2659  13.2659  13.5194  13.5194  13.5786  13.6839  13.6882
    13.7774  13.7911  13.7983  13.8689  13.8689  13.9182  13.9546  13.9546
    14.3588  14.3588  14.3670  14.3670  14.4506  14.4506  14.7575  15.3207
    16.0896  16.0896  17.1845  18.0068  18.0333  18.0923  18.0923  18.4416
    18.7906  18.7906  19.4452  19.4452  20.5526  20.5526  21.4330  21.8134
    21.8134  21.9153  21.9153  22.1110  22.3750  22.3750  23.1515  24.7204
    24.7204  25.0839

          k = 0.0000 0.3333 0.0000 (  9778 PWs)   bands (ev):

   -89.2521 -89.2518 -89.2515 -89.2515 -89.2513 -89.2513 -89.2511 -89.2508
   -88.9999 -88.9999 -88.9998 -88.9997 -40.5274 -40.5274 -40.5230 -40.5230
   -40.5172 -40.5172 -40.5144 -40.5144 -40.5104 -40.5104 -40.5082 -40.5024
   -40.5018 -40.4972 -40.4972 -40.4942 -40.4942 -40.4905 -40.4888 -40.4888
   -40.4862 -40.4862 -40.4853 -40.4853 -40.2560 -40.2538 -40.2538 -40.2502
   -40.2456 -40.2456 -40.2449 -40.2449 -40.2424 -40.2424 -40.2409 -40.2409
     6.3201   7.3969   8.1122   8.1122   9.3913   9.8721   9.8721  10.0647
    10.1529  10.1529  10.5458  10.5458  10.6593  10.7746  10.9053  10.9053
    11.0050  11.1030  11.1030  11.2138  11.2308  11.3265  11.3265  11.4121
    11.4554  11.4554  11.8283  11.8283  11.8665  11.8665  11.9232  11.9232
    12.1270  12.1270  12.4152  12.4152  12.5504  12.5504  12.8085  12.8085
    12.8363  12.8363  12.9395  13.0239  13.0239  13.0496  13.0690  13.1716
    13.1716  13.2659  13.2659  13.5194  13.5194  13.5786  13.6839  13.6882
    13.7774  13.7911  13.7983  13.8689  13.8689  13.9182  13.9546  13.9546
    14.3588  14.3588  14.3670  14.3670  14.4506  14.4506  14.7575  15.3207
    16.0896  16.0896  17.1845  18.0068  18.0333  18.0923  18.0923  18.4416
    18.7906  18.7906  19.4452  19.4452  20.5526  20.5526  21.4330  21.8134
    21.8134  21.9153  21.9153  22.1110  22.3750  22.3750  23.1515  24.7204
    24.7206  25.0869

          k = 0.0000 0.3333 0.3333 (  9751 PWs)   bands (ev):

   -89.2519 -89.2517 -89.2517 -89.2514 -89.2514 -89.2512 -89.2512 -89.2510
   -88.9999 -88.9999 -88.9998 -88.9998 -40.5226 -40.5226 -40.5204 -40.5198
   -40.5158 -40.5148 -40.5148 -40.5115 -40.5100 -40.5100 -40.5063 -40.5062
   -40.5022 -40.4996 -40.4964 -40.4964 -40.4950 -40.4919 -40.4918 -40.4918
   -40.4914 -40.4877 -40.4877 -40.4861 -40.2523 -40.2523 -40.2506 -40.2498
   -40.2462 -40.2457 -40.2453 -40.2450 -40.2449 -40.2427 -40.2427 -40.2425
     6.7062   7.6352   7.6352   8.0194   9.5960   9.5960   9.9690  10.0393
    10.1850  10.5491  10.5636  10.5636  10.6540  10.9147  10.9147  10.9240
    11.0748  11.0893  11.0893  11.1925  11.1986  11.2679  11.2679  11.4377
    11.4532  11.5239  11.5738  11.5738  11.6798  11.8545  11.9695  11.9695
    12.0871  12.1733  12.3082  12.3082  12.3729  12.3729  12.4208  12.4208
    12.4406  12.5385  12.5406  12.7152  12.7843  12.8462  12.8462  12.9186
    13.2632  13.2632  13.2762  13.4269  13.5678  13.6815  13.6815  13.7270
    13.7298  13.7298  13.7574  13.9593  14.0359  14.0360  14.0913  14.1555
    14.2058  14.7531  15.1631  15.1631  15.3714  15.3714  15.5094  15.5094
    15.7826  16.2176  16.6518  17.4634  17.8792  18.2217  18.6664  18.6664
    18.9440  19.3761  19.5393  19.5393  19.9603  19.9603  21.0405  21.1832
    21.9802  22.0024  22.3138  22.6534  22.6534  22.7090  22.8024  22.9209
    22.9209  24.4261

          k = 0.0000 0.3333-0.3333 (  9751 PWs)   bands (ev):

   -89.2519 -89.2517 -89.2517 -89.2514 -89.2514 -89.2512 -89.2512 -89.2510
   -88.9999 -88.9999 -88.9998 -88.9998 -40.5226 -40.5226 -40.5204 -40.5198
   -40.5158 -40.5148 -40.5148 -40.5115 -40.5100 -40.5100 -40.5063 -40.5062
   -40.5022 -40.4996 -40.4964 -40.4964 -40.4950 -40.4919 -40.4918 -40.4918
   -40.4914 -40.4877 -40.4877 -40.4861 -40.2523 -40.2523 -40.2506 -40.2498
   -40.2462 -40.2457 -40.2453 -40.2450 -40.2449 -40.2427 -40.2427 -40.2425
     6.7062   7.6352   7.6352   8.0194   9.5960   9.5960   9.9690  10.0393
    10.1850  10.5491  10.5636  10.5636  10.6540  10.9147  10.9147  10.9240
    11.0748  11.0893  11.0893  11.1925  11.1986  11.2679  11.2679  11.4377
    11.4532  11.5239  11.5738  11.5738  11.6798  11.8545  11.9695  11.9695
    12.0871  12.1733  12.3082  12.3082  12.3729  12.3729  12.4208  12.4208
    12.4406  12.5385  12.5406  12.7152  12.7843  12.8462  12.8462  12.9186
    13.2632  13.2632  13.2762  13.4269  13.5678  13.6815  13.6815  13.7270
    13.7298  13.7298  13.7574  13.9593  14.0359  14.0360  14.0913  14.1555
    14.2058  14.7531  15.1631  15.1631  15.3714  15.3714  15.5094  15.5094
    15.7826  16.2176  16.6518  17.4634  17.8792  18.2217  18.6664  18.6664
    18.9440  19.3761  19.5393  19.5393  19.9603  19.9603  21.0405  21.1832
    21.9802  22.0024  22.3138  22.6534  22.6534  22.7090  22.8024  22.9209
    22.9209  24.4261

          k = 0.3333 0.0000 0.0000 (  9778 PWs)   bands (ev):

   -89.2521 -89.2518 -89.2515 -89.2515 -89.2513 -89.2513 -89.2511 -89.2508
   -88.9999 -88.9999 -88.9998 -88.9997 -40.5274 -40.5274 -40.5230 -40.5230
   -40.5172 -40.5172 -40.5144 -40.5144 -40.5104 -40.5104 -40.5082 -40.5024
   -40.5018 -40.4972 -40.4972 -40.4942 -40.4942 -40.4905 -40.4888 -40.4888
   -40.4862 -40.4862 -40.4853 -40.4853 -40.2560 -40.2538 -40.2538 -40.2502
   -40.2456 -40.2456 -40.2449 -40.2449 -40.2424 -40.2424 -40.2409 -40.2409
     6.3201   7.3969   8.1122   8.1122   9.3913   9.8721   9.8721  10.0647
    10.1529  10.1529  10.5458  10.5458  10.6593  10.7746  10.9053  10.9053
    11.0050  11.1030  11.1030  11.2138  11.2308  11.3265  11.3265  11.4121
    11.4554  11.4554  11.8283  11.8283  11.8665  11.8665  11.9232  11.9232
    12.1270  12.1270  12.4152  12.4152  12.5504  12.5504  12.8085  12.8085
    12.8363  12.8363  12.9395  13.0239  13.0239  13.0496  13.0690  13.1716
    13.1716  13.2659  13.2659  13.5194  13.5194  13.5786  13.6839  13.6882
    13.7774  13.7911  13.7983  13.8689  13.8689  13.9182  13.9546  13.9546
    14.3588  14.3588  14.3670  14.3670  14.4506  14.4506  14.7575  15.3207
    16.0896  16.0896  17.1845  18.0068  18.0333  18.0923  18.0923  18.4416
    18.7906  18.7906  19.4452  19.4452  20.5526  20.5526  21.4330  21.8134
    21.8134  21.9153  21.9153  22.1110  22.3750  22.3750  23.1515  24.7204
    24.7204  25.0836

          k = 0.3333 0.0000 0.3333 (  9751 PWs)   bands (ev):

   -89.2520 -89.2517 -89.2517 -89.2514 -89.2514 -89.2512 -89.2512 -89.2510
   -88.9999 -88.9999 -88.9998 -88.9998 -40.5226 -40.5226 -40.5204 -40.5198
   -40.5158 -40.5148 -40.5148 -40.5115 -40.5100 -40.5100 -40.5063 -40.5062
   -40.5022 -40.4996 -40.4964 -40.4964 -40.4950 -40.4919 -40.4918 -40.4918
   -40.4914 -40.4877 -40.4877 -40.4861 -40.2523 -40.2523 -40.2506 -40.2498
   -40.2462 -40.2457 -40.2453 -40.2449 -40.2449 -40.2427 -40.2427 -40.2425
     6.7062   7.6352   7.6352   8.0194   9.5960   9.5960   9.9690  10.0393
    10.1850  10.5491  10.5636  10.5636  10.6540  10.9147  10.9147  10.9240
    11.0748  11.0893  11.0893  11.1925  11.1986  11.2679  11.2679  11.4377
    11.4532  11.5239  11.5738  11.5738  11.6798  11.8545  11.9695  11.9695
    12.0871  12.1733  12.3082  12.3082  12.3729  12.3729  12.4208  12.4208
    12.4406  12.5385  12.5406  12.7152  12.7843  12.8462  12.8462  12.9186
    13.2632  13.2632  13.2762  13.4269  13.5678  13.6815  13.6815  13.7270
    13.7298  13.7298  13.7574  13.9593  14.0360  14.0360  14.0913  14.1555
    14.2058  14.7531  15.1631  15.1631  15.3714  15.3714  15.5094  15.5094
    15.7826  16.2176  16.6518  17.4634  17.8792  18.2217  18.6664  18.6664
    18.9440  19.3761  19.5393  19.5393  19.9603  19.9603  21.0405  21.1832
    21.9802  22.0024  22.3138  22.6534  22.6534  22.7090  22.8024  22.9209
    22.9209  24.4261

          k = 0.3333 0.0000-0.3333 (  9751 PWs)   bands (ev):

   -89.2520 -89.2517 -89.2517 -89.2514 -89.2514 -89.2512 -89.2512 -89.2510
   -88.9999 -88.9999 -88.9998 -88.9998 -40.5226 -40.5226 -40.5204 -40.5198
   -40.5158 -40.5148 -40.5148 -40.5115 -40.5100 -40.5100 -40.5063 -40.5062
   -40.5022 -40.4996 -40.4964 -40.4964 -40.4950 -40.4919 -40.4918 -40.4918
   -40.4914 -40.4877 -40.4877 -40.4861 -40.2523 -40.2523 -40.2506 -40.2498
   -40.2462 -40.2457 -40.2453 -40.2449 -40.2449 -40.2427 -40.2427 -40.2425
     6.7062   7.6352   7.6352   8.0194   9.5960   9.5960   9.9690  10.0393
    10.1850  10.5491  10.5636  10.5636  10.6540  10.9147  10.9147  10.9240
    11.0748  11.0893  11.0893  11.1925  11.1986  11.2679  11.2679  11.4377
    11.4532  11.5239  11.5738  11.5738  11.6798  11.8545  11.9695  11.9695
    12.0871  12.1733  12.3082  12.3082  12.3729  12.3729  12.4208  12.4208
    12.4406  12.5385  12.5406  12.7152  12.7843  12.8462  12.8462  12.9186
    13.2632  13.2632  13.2762  13.4269  13.5678  13.6815  13.6815  13.7270
    13.7298  13.7298  13.7574  13.9593  14.0360  14.0360  14.0913  14.1555
    14.2058  14.7531  15.1631  15.1631  15.3714  15.3714  15.5094  15.5094
    15.7826  16.2176  16.6518  17.4634  17.8792  18.2217  18.6664  18.6664
    18.9440  19.3761  19.5393  19.5393  19.9603  19.9603  21.0405  21.1832
    21.9802  22.0024  22.3138  22.6534  22.6534  22.7090  22.8024  22.9209
    22.9209  24.4259

          k = 0.3333 0.3333 0.0000 (  9751 PWs)   bands (ev):

   -89.2520 -89.2517 -89.2517 -89.2514 -89.2514 -89.2512 -89.2512 -89.2510
   -88.9999 -88.9999 -88.9999 -88.9998 -40.5226 -40.5226 -40.5204 -40.5198
   -40.5158 -40.5148 -40.5148 -40.5115 -40.5100 -40.5100 -40.5063 -40.5062
   -40.5022 -40.4996 -40.4964 -40.4964 -40.4950 -40.4919 -40.4918 -40.4918
   -40.4914 -40.4877 -40.4877 -40.4861 -40.2523 -40.2523 -40.2506 -40.2498
   -40.2462 -40.2457 -40.2453 -40.2449 -40.2449 -40.2427 -40.2427 -40.2425
     6.7062   7.6352   7.6352   8.0194   9.5960   9.5960   9.9690  10.0393
    10.1850  10.5491  10.5636  10.5636  10.6540  10.9147  10.9147  10.9240
    11.0748  11.0893  11.0893  11.1925  11.1986  11.2679  11.2679  11.4377
    11.4532  11.5239  11.5738  11.5738  11.6798  11.8545  11.9695  11.9695
    12.0871  12.1733  12.3082  12.3082  12.3729  12.3729  12.4208  12.4208
    12.4406  12.5385  12.5406  12.7152  12.7843  12.8462  12.8462  12.9186
    13.2632  13.2632  13.2762  13.4269  13.5678  13.6815  13.6815  13.7270
    13.7298  13.7298  13.7574  13.9593  14.0360  14.0360  14.0913  14.1555
    14.2058  14.7531  15.1631  15.1631  15.3714  15.3714  15.5094  15.5094
    15.7826  16.2176  16.6518  17.4634  17.8792  18.2217  18.6664  18.6664
    18.9440  19.3761  19.5393  19.5393  19.9603  19.9603  21.0405  21.1832
    21.9802  22.0024  22.3138  22.6534  22.6534  22.7090  22.8024  22.9209
    22.9209  24.4260

          k = 0.3333 0.3333 0.3333 (  9792 PWs)   bands (ev):

   -89.2518 -89.2515 -89.2515 -89.2515 -89.2513 -89.2513 -89.2513 -89.2511
   -88.9999 -88.9999 -88.9998 -88.9998 -40.5172 -40.5172 -40.5172 -40.5150
   -40.5150 -40.5150 -40.5111 -40.5111 -40.5107 -40.5087 -40.5087 -40.5087
   -40.4982 -40.4982 -40.4970 -40.4970 -40.4970 -40.4937 -40.4937 -40.4937
   -40.4933 -40.4921 -40.4921 -40.4921 -40.2511 -40.2511 -40.2510 -40.2506
   -40.2452 -40.2452 -40.2452 -40.2449 -40.2449 -40.2433 -40.2433 -40.2433
     7.0647   7.8211   7.8211   7.8211   9.4392   9.4392   9.4392   9.9009
    10.6128  10.6128  10.6128  10.6908  10.6908  10.9922  10.9922  10.9922
    10.9992  10.9992  10.9992  11.2037  11.2037  11.2037  11.2085  11.2381
    11.2381  11.4326  11.4326  11.4326  11.8528  11.8528  11.8667  11.8667
    11.8667  12.2407  12.2407  12.2407  12.3411  12.3411  12.3411  12.4351
    12.4351  12.4351  12.5884  12.7072  12.7072  12.7759  12.7759  12.7759
    13.5234  13.5234  13.5234  13.5887  13.5887  13.5887  13.6621  13.6621
    13.7674  13.7674  13.7674  13.8613  13.8613  13.8614  13.9086  13.9086
    14.3620  14.3620  14.3620  15.2201  15.9225  15.9225  15.9225  16.1983
    17.1960  17.1960  17.1960  17.5203  17.5203  17.5203  18.5580  18.5580
    19.4641  19.7378  19.7378  19.7378  20.0709  20.0709  21.2093  21.2093
    21.2093  21.2703  21.4260  21.4260  21.4260  22.6635  22.6635  22.6635
    24.4203  24.4203

          k = 0.3333 0.3333-0.3333 (  9792 PWs)   bands (ev):

   -89.2518 -89.2515 -89.2515 -89.2515 -89.2513 -89.2513 -89.2513 -89.2511
   -88.9999 -88.9999 -88.9998 -88.9998 -40.5172 -40.5172 -40.5172 -40.5150
   -40.5150 -40.5150 -40.5111 -40.5111 -40.5107 -40.5087 -40.5087 -40.5087
   -40.4982 -40.4982 -40.4970 -40.4970 -40.4970 -40.4937 -40.4937 -40.4937
   -40.4933 -40.4921 -40.4921 -40.4921 -40.2511 -40.2511 -40.2510 -40.2506
   -40.2452 -40.2452 -40.2452 -40.2449 -40.2449 -40.2433 -40.2433 -40.2433
     7.0647   7.8211   7.8211   7.8211   9.4392   9.4392   9.4392   9.9009
    10.6128  10.6128  10.6128  10.6908  10.6908  10.9922  10.9922  10.9922
    10.9992  10.9992  10.9992  11.2037  11.2037  11.2037  11.2085  11.2381
    11.2381  11.4326  11.4326  11.4326  11.8528  11.8528  11.8667  11.8667
    11.8667  12.2407  12.2407  12.2407  12.3411  12.3411  12.3411  12.4351
    12.4351  12.4351  12.5884  12.7072  12.7072  12.7759  12.7759  12.7759
    13.5234  13.5234  13.5234  13.5887  13.5887  13.5887  13.6621  13.6621
    13.7674  13.7674  13.7674  13.8613  13.8613  13.8614  13.9086  13.9086
    14.3620  14.3620  14.3620  15.2201  15.9225  15.9225  15.9225  16.1983
    17.1960  17.1960  17.1960  17.5203  17.5203  17.5203  18.5580  18.5580
    19.4641  19.7378  19.7378  19.7378  20.0709  20.0709  21.2093  21.2093
    21.2093  21.2703  21.4260  21.4260  21.4260  22.6635  22.6635  22.6635
    24.4203  24.4203

          k = 0.3333-0.3333 0.0000 (  9751 PWs)   bands (ev):

   -89.2520 -89.2517 -89.2517 -89.2514 -89.2514 -89.2512 -89.2512 -89.2510
   -88.9999 -88.9999 -88.9999 -88.9998 -40.5226 -40.5226 -40.5204 -40.5198
   -40.5158 -40.5148 -40.5148 -40.5115 -40.5100 -40.5100 -40.5063 -40.5062
   -40.5022 -40.4996 -40.4964 -40.4964 -40.4950 -40.4919 -40.4918 -40.4918
   -40.4914 -40.4877 -40.4877 -40.4861 -40.2523 -40.2523 -40.2506 -40.2498
   -40.2462 -40.2457 -40.2453 -40.2449 -40.2449 -40.2427 -40.2427 -40.2425
     6.7062   7.6352   7.6352   8.0194   9.5960   9.5960   9.9690  10.0393
    10.1850  10.5491  10.5636  10.5636  10.6540  10.9147  10.9147  10.9240
    11.0748  11.0893  11.0893  11.1925  11.1986  11.2679  11.2679  11.4377
    11.4532  11.5239  11.5738  11.5738  11.6798  11.8545  11.9695  11.9695
    12.0871  12.1733  12.3082  12.3082  12.3729  12.3729  12.4208  12.4208
    12.4406  12.5385  12.5406  12.7152  12.7843  12.8462  12.8462  12.9186
    13.2632  13.2632  13.2762  13.4269  13.5678  13.6815  13.6815  13.7270
    13.7298  13.7298  13.7574  13.9593  14.0360  14.0360  14.0913  14.1555
    14.2058  14.7531  15.1631  15.1631  15.3714  15.3714  15.5094  15.5094
    15.7826  16.2176  16.6518  17.4634  17.8792  18.2217  18.6664  18.6664
    18.9440  19.3761  19.5393  19.5393  19.9603  19.9603  21.0405  21.1832
    21.9802  22.0024  22.3138  22.6534  22.6534  22.7090  22.8024  22.9209
    22.9209  24.4260

          k = 0.3333-0.3333 0.3333 (  9792 PWs)   bands (ev):

   -89.2518 -89.2515 -89.2515 -89.2515 -89.2513 -89.2513 -89.2513 -89.2511
   -88.9999 -88.9999 -88.9998 -88.9998 -40.5172 -40.5172 -40.5172 -40.5150
   -40.5150 -40.5150 -40.5111 -40.5111 -40.5107 -40.5087 -40.5087 -40.5087
   -40.4982 -40.4982 -40.4970 -40.4970 -40.4970 -40.4937 -40.4937 -40.4937
   -40.4933 -40.4921 -40.4921 -40.4921 -40.2511 -40.2511 -40.2510 -40.2506
   -40.2452 -40.2452 -40.2452 -40.2449 -40.2449 -40.2433 -40.2433 -40.2433
     7.0647   7.8211   7.8211   7.8211   9.4392   9.4392   9.4392   9.9009
    10.6128  10.6128  10.6128  10.6908  10.6908  10.9922  10.9922  10.9922
    10.9992  10.9992  10.9992  11.2037  11.2037  11.2037  11.2085  11.2381
    11.2381  11.4326  11.4326  11.4326  11.8528  11.8528  11.8667  11.8667
    11.8667  12.2407  12.2407  12.2407  12.3411  12.3411  12.3411  12.4351
    12.4351  12.4351  12.5884  12.7072  12.7072  12.7759  12.7759  12.7759
    13.5234  13.5234  13.5234  13.5887  13.5887  13.5887  13.6621  13.6621
    13.7674  13.7674  13.7674  13.8613  13.8613  13.8614  13.9086  13.9086
    14.3620  14.3620  14.3620  15.2201  15.9225  15.9225  15.9225  16.1983
    17.1960  17.1960  17.1960  17.5203  17.5203  17.5203  18.5580  18.5580
    19.4641  19.7378  19.7378  19.7378  20.0709  20.0709  21.2093  21.2093
    21.2093  21.2703  21.4260  21.4260  21.4260  22.6635  22.6635  22.6635
    24.4203  24.4203

          k = 0.3333-0.3333-0.3333 (  9792 PWs)   bands (ev):

   -89.2518 -89.2515 -89.2515 -89.2515 -89.2513 -89.2513 -89.2513 -89.2511
   -88.9999 -88.9999 -88.9998 -88.9998 -40.5172 -40.5172 -40.5172 -40.5150
   -40.5150 -40.5150 -40.5111 -40.5111 -40.5107 -40.5087 -40.5087 -40.5087
   -40.4982 -40.4982 -40.4970 -40.4970 -40.4970 -40.4937 -40.4937 -40.4937
   -40.4933 -40.4921 -40.4921 -40.4921 -40.2511 -40.2511 -40.2510 -40.2506
   -40.2452 -40.2452 -40.2452 -40.2449 -40.2449 -40.2433 -40.2433 -40.2433
     7.0647   7.8211   7.8211   7.8211   9.4392   9.4392   9.4392   9.9009
    10.6128  10.6128  10.6128  10.6908  10.6908  10.9922  10.9922  10.9922
    10.9992  10.9992  10.9992  11.2037  11.2037  11.2037  11.2085  11.2381
    11.2381  11.4326  11.4326  11.4326  11.8528  11.8528  11.8667  11.8667
    11.8667  12.2407  12.2407  12.2407  12.3411  12.3411  12.3411  12.4351
    12.4351  12.4351  12.5884  12.7072  12.7072  12.7759  12.7759  12.7759
    13.5234  13.5234  13.5234  13.5887  13.5887  13.5887  13.6621  13.6621
    13.7674  13.7674  13.7674  13.8613  13.8613  13.8614  13.9086  13.9086
    14.3620  14.3620  14.3620  15.2201  15.9225  15.9225  15.9225  16.1983
    17.1960  17.1960  17.1960  17.5203  17.5203  17.5203  18.5580  18.5580
    19.4641  19.7378  19.7378  19.7378  20.0709  20.0709  21.2093  21.2093
    21.2093  21.2703  21.4260  21.4260  21.4260  22.6635  22.6635  22.6635
    24.4203  24.4203

     the Fermi energy is    17.0183 ev

!    total energy              =   -3342.05672692 Ry
     estimated scf accuracy    <          7.2E-10 Ry
     smearing contrib. (-TS)   =      -0.00106091 Ry
     internal energy E=F+TS    =   -3342.05566602 Ry

     convergence has been achieved in  11 iterations

     Forces acting on atoms (cartesian axes, Ry/au):

     atom    1 type  2   force =    -0.00000002    0.00000001    0.00000003
     atom    2 type  2   force =    -0.00000002   -0.00000001   -0.00000001
     atom    3 type  2   force =    -0.00000010    0.00000001   -0.00000003
     atom    4 type  2   force =    -0.00000012   -0.00000004    0.00000006
     atom    5 type  1   force =    -0.00000123    0.00000087   -0.00000057
     atom    6 type  1   force =    -0.00000120   -0.00000088   -0.00000057
     atom    7 type  1   force =    -0.00000138    0.00000052    0.00000106
     atom    8 type  1   force =    -0.00000086   -0.00000072    0.00000037
     atom    9 type  1   force =    -0.00000096    0.00000075    0.00000045
     atom   10 type  1   force =    -0.00000131   -0.00000057   -0.00000097
     atom   11 type  1   force =     0.00000129    0.00000087    0.00000064
     atom   12 type  1   force =     0.00000119   -0.00000081    0.00000060
     atom   13 type  1   force =     0.00000108    0.00000047   -0.00000092
     atom   14 type  1   force =     0.00000123   -0.00000082   -0.00000061
     atom   15 type  1   force =     0.00000128    0.00000091   -0.00000064
     atom   16 type  1   force =     0.00000115   -0.00000058    0.00000111
     The non-local contrib.  to forces
     atom    1 type  2   force =     0.00000109    0.00000046    0.00000085
     atom    2 type  2   force =     0.00000110   -0.00000045   -0.00000089
     atom    3 type  2   force =    -0.00000108    0.00000045   -0.00000084
     atom    4 type  2   force =    -0.00000107   -0.00000043    0.00000083
     atom    5 type  1   force =    -0.00000165    0.00000078   -0.00000060
     atom    6 type  1   force =    -0.00000156   -0.00000077   -0.00000058
     atom    7 type  1   force =     0.00000176   -0.00000068   -0.00000134
     atom    8 type  1   force =    -0.00000133   -0.00000067    0.00000049
     atom    9 type  1   force =    -0.00000145    0.00000074    0.00000052
     atom   10 type  1   force =     0.00000179    0.00000070    0.00000129
     atom   11 type  1   force =     0.00000160    0.00000078    0.00000062
     atom   12 type  1   force =     0.00000152   -0.00000076    0.00000059
     atom   13 type  1   force =    -0.00000163   -0.00000070    0.00000133
     atom   14 type  1   force =     0.00000164   -0.00000080   -0.00000062
     atom   15 type  1   force =     0.00000164    0.00000079   -0.00000061
     atom   16 type  1   force =    -0.00000171    0.00000075   -0.00000142
     The ionic contribution  to forces
     atom    1 type  2   force =    -0.00000000   -0.00000000   -0.00000000
     atom    2 type  2   force =    -0.00000000    0.00000000    0.00000000
     atom    3 type  2   force =     0.00000000   -0.00000000    0.00000000
     atom    4 type  2   force =     0.00000000    0.00000000   -0.00000000
     atom    5 type  1   force =    -0.00001395    0.00001395    0.00001395
     atom    6 type  1   force =    -0.00001395   -0.00001395    0.00001395
     atom    7 type  1   force =     0.00000000   -0.00000000   -0.00000000
     atom    8 type  1   force =    -0.00001395   -0.00001395   -0.00001395
     atom    9 type  1   force =    -0.00001395    0.00001395   -0.00001395
     atom   10 type  1   force =     0.00000000   -0.00000000   -0.00000000
     atom   11 type  1   force =     0.00001395    0.00001395   -0.00001395
     atom   12 type  1   force =     0.00001395   -0.00001395   -0.00001395
     atom   13 type  1   force =    -0.00000000   -0.00000000    0.00000000
     atom   14 type  1   force =     0.00001395   -0.00001395    0.00001395
     atom   15 type  1   force =     0.00001395    0.00001395    0.00001395
     atom   16 type  1   force =    -0.00000000   -0.00000000   -0.00000000
     The local contribution  to forces
     atom    1 type  2   force =    -0.00000813   -0.00000341   -0.00000643
     atom    2 type  2   force =    -0.00000816    0.00000339    0.00000650
     atom    3 type  2   force =     0.00000809   -0.00000331    0.00000627
     atom    4 type  2   force =     0.00000801    0.00000325   -0.00000621
     atom    5 type  1   force =    -0.00002544    0.00000458   -0.00003027
     atom    6 type  1   force =    -0.00002457   -0.00000442   -0.00003010
     atom    7 type  1   force =     0.00004004   -0.00001578   -0.00003059
     atom    8 type  1   force =    -0.00002206   -0.00000389    0.00002960
     atom    9 type  1   force =    -0.00002335    0.00000407    0.00002998
     atom   10 type  1   force =     0.00004008    0.00001609    0.00002990
     atom   11 type  1   force =     0.00002425    0.00000476    0.00003074
     atom   12 type  1   force =     0.00002312   -0.00000455    0.00003052
     atom   13 type  1   force =    -0.00003933   -0.00001660    0.00003146
     atom   14 type  1   force =     0.00002501   -0.00000477   -0.00003065
     atom   15 type  1   force =     0.00002539    0.00000459   -0.00003056
     atom   16 type  1   force =    -0.00003921    0.00001693   -0.00003218
     The core correction contribution to forces
     atom    1 type  2   force =    -0.00000018   -0.00000008   -0.00000014
     atom    2 type  2   force =    -0.00000018    0.00000008    0.00000015
     atom    3 type  2   force =     0.00000018   -0.00000007    0.00000014
     atom    4 type  2   force =     0.00000018    0.00000007   -0.00000014
     atom    5 type  1   force =     0.00000000    0.00000000    0.00000000
     atom    6 type  1   force =     0.00000000    0.00000000    0.00000000
     atom    7 type  1   force =     0.00000000    0.00000000    0.00000000
     atom    8 type  1   force =     0.00000000    0.00000000    0.00000000
     atom    9 type  1   force =     0.00000000    0.00000000    0.00000000
     atom   10 type  1   force =     0.00000000    0.00000000    0.00000000
     atom   11 type  1   force =     0.00000000    0.00000000    0.00000000
     atom   12 type  1   force =     0.00000000    0.00000000    0.00000000
     atom   13 type  1   force =     0.00000000    0.00000000    0.00000000
     atom   14 type  1   force =     0.00000000    0.00000000    0.00000000
     atom   15 type  1   force =     0.00000000    0.00000000    0.00000000
     atom   16 type  1   force =     0.00000000    0.00000000    0.00000000
     The Hubbard contrib.    to forces
     atom    1 type  2   force =     0.00000000    0.00000000    0.00000000
     atom    2 type  2   force =     0.00000000    0.00000000    0.00000000
     atom    3 type  2   force =     0.00000000    0.00000000    0.00000000
     atom    4 type  2   force =     0.00000000    0.00000000    0.00000000
     atom    5 type  1   force =     0.00000000    0.00000000    0.00000000
     atom    6 type  1   force =     0.00000000    0.00000000    0.00000000
     atom    7 type  1   force =     0.00000000    0.00000000    0.00000000
     atom    8 type  1   force =     0.00000000    0.00000000    0.00000000
     atom    9 type  1   force =     0.00000000    0.00000000    0.00000000
     atom   10 type  1   force =     0.00000000    0.00000000    0.00000000
     atom   11 type  1   force =     0.00000000    0.00000000    0.00000000
     atom   12 type  1   force =     0.00000000    0.00000000    0.00000000
     atom   13 type  1   force =     0.00000000    0.00000000    0.00000000
     atom   14 type  1   force =     0.00000000    0.00000000    0.00000000
     atom   15 type  1   force =     0.00000000    0.00000000    0.00000000
     atom   16 type  1   force =     0.00000000    0.00000000    0.00000000
     The SCF correction term to forces
     atom    1 type  2   force =     0.00000725    0.00000303    0.00000574
     atom    2 type  2   force =     0.00000727   -0.00000302   -0.00000578
     atom    3 type  2   force =    -0.00000723    0.00000296   -0.00000561
     atom    4 type  2   force =    -0.00000718   -0.00000293    0.00000557
     atom    5 type  1   force =     0.00003986   -0.00001844    0.00001633
     atom    6 type  1   force =     0.00003893    0.00001828    0.00001616
     atom    7 type  1   force =    -0.00004313    0.00001699    0.00003298
     atom    8 type  1   force =     0.00003654    0.00001780   -0.00001578
     atom    9 type  1   force =     0.00003784   -0.00001801   -0.00001611
     atom   10 type  1   force =    -0.00004312   -0.00001735   -0.00003217
     atom   11 type  1   force =    -0.00003846   -0.00001862   -0.00001678
     atom   12 type  1   force =    -0.00003735    0.00001846   -0.00001657
     atom   13 type  1   force =     0.00004209    0.00001777   -0.00003372
     atom   14 type  1   force =    -0.00003932    0.00001870    0.00001670
     atom   15 type  1   force =    -0.00003965   -0.00001843    0.00001657
     atom   16 type  1   force =     0.00004213   -0.00001825    0.00003470

     Total force =     0.000006     Total SCF correction =     0.000173
     SCF correction compared to forces is large: reduce conv_thr to get better values


     Computing stress (Cartesian axis) and pressure

          total   stress  (Ry/bohr**3)                   (kbar)     P=      -84.55
  -0.00057479   0.00000000  -0.00000000          -84.55        0.00       -0.00
   0.00000000  -0.00057479  -0.00000000            0.00      -84.55       -0.00
  -0.00000000  -0.00000000  -0.00057479           -0.00       -0.00      -84.55


     Entering Dynamics;  it =     1   time =  0.00000 pico-seconds

  new lattice vectors (alat unit) :
   0.999990944   0.000000650   0.000000581
   0.000000650   0.999990806   0.000001221
   0.000000581   0.000001221   0.999990699
  new unit-cell volume =   1915.0134 (a.u.)^3
  new positions in cryst coord
Si       0.000119273  -0.001186405  -0.000452013
Si      -0.000332754   0.499199984   0.498628868
Si       0.500788905   0.002177438   0.501953458
Si       0.499424576   0.499808984  -0.000130313
Au       0.248986478   0.749988378   0.749479171
Au       0.249958663   0.249844686   0.750491940
Au       0.500408223  -0.000583852  -0.000617647
Au       0.249787314   0.250136921   0.249997901
Au       0.250470677   0.750185664   0.250047925
Au       0.500553866   0.499990093   0.499822823
Au       0.750259722   0.750433297   0.250776724
Au       0.750453913   0.250284338   0.250219761
Au      -0.000707342  -0.000290920   0.500140530
Au       0.750317630   0.250742646   0.750123711
Au       0.749827718   0.749345807   0.749793605
Au      -0.000316862   0.499922940  -0.000276444
  new positions in cart coord (alat unit)
Si       0.000119271  -0.001186395  -0.000452010
Si      -0.000332137   0.499196003   0.498624840
Si       0.500784663   0.002178356   0.501949083
Si       0.499420378   0.499804713  -0.000129411
Au       0.248985146   0.749982560   0.749473261
Au       0.249956997   0.249843468   0.750485411
Au       0.500403690  -0.000583522  -0.000617351
Au       0.249785360   0.250135089   0.249996026
Au       0.250469042   0.750179235   0.250046661
Au       0.500549948   0.499986432   0.499819076
Au       0.750253561   0.750427191   0.250775744
Au       0.750447425   0.250282831   0.250218175
Au      -0.000707045  -0.000290307   0.500135878
Au       0.750311434   0.250741745   0.750117477
Au       0.749821850   0.749340321   0.749787982
Au      -0.000316534   0.499918343  -0.000275831

     Ekin =     0.28501304 Ry    T =    0.0 K  Etot =    -3341.77171388
     new unit-cell volume =   1915.01345 a.u.^3 (   283.77572 Ang^3 )
     density =     14.48819 g/cm^3

CELL_PARAMETERS (angstrom)
   6.571408487   0.000004272   0.000003818
   0.000004272   6.571407581   0.000008025
   0.000003818   0.000008025   6.571406882

ATOMIC_POSITIONS (crystal)
Si            0.0001192732       -0.0011864053       -0.0004520128
Si           -0.0003327541        0.4991999836        0.4986288677
Si            0.5007889050        0.0021774378        0.5019534579
Si            0.4994245757        0.4998089838       -0.0001303128
Au            0.2489864778        0.7499883784        0.7494791707
Au            0.2499586626        0.2498446862        0.7504919403
Au            0.5004082229       -0.0005838518       -0.0006176469
Au            0.2497873144        0.2501369207        0.2499979009
Au            0.2504706770        0.7501856645        0.2500479251
Au            0.5005538657        0.4999900932        0.4998228227
Au            0.7502597217        0.7504332968        0.2507767241
Au            0.7504539133        0.2502843383        0.2502197608
Au           -0.0007073422       -0.0002909197        0.5001405299
Au            0.7503176302        0.2507426463        0.7501237111
Au            0.7498277181        0.7493458071        0.7497936050
Au           -0.0003168616        0.4999229399       -0.0002764438



     Writing config-only to output data dir ./out/si_au3.save/
     NEW-OLD atomic charge density approx. for the potential
     extrapolated charge  243.99328, renormalised to  244.00000

     total cpu time spent up to now is       36.1 secs

     per-process dynamical memory:    60.5 Mb

     Self-consistent Calculation

     iteration #  1     ecut=    45.00 Ry     beta= 0.40
     Davidson diagonalization with overlap
     ethr =  1.00E-06,  avg # of iterations =  5.0

     Threshold (ethr) on eigenvalues was too large:
     Diagonalizing with lowered threshold

     Davidson diagonalization with overlap
     ethr =  1.75E-08,  avg # of iterations =  2.0

     total cpu time spent up to now is       43.0 secs

     total energy              =   -3342.05670362 Ry
     estimated scf accuracy    <       0.00004262 Ry

     iteration #  2     ecut=    45.00 Ry     beta= 0.40
     Davidson diagonalization with overlap
     ethr =  1.75E-08,  avg # of iterations =  2.1

     total cpu time spent up to now is       45.6 secs

     total energy              =   -3342.05670893 Ry
     estimated scf accuracy    <       0.00002281 Ry

     iteration #  3     ecut=    45.00 Ry     beta= 0.40
     Davidson diagonalization with overlap
     ethr =  9.35E-09,  avg # of iterations =  2.1

     total cpu time spent up to now is       47.8 secs

     total energy              =   -3342.05671158 Ry
     estimated scf accuracy    <       0.00000551 Ry

     iteration #  4     ecut=    45.00 Ry     beta= 0.40
     Davidson diagonalization with overlap
     ethr =  2.26E-09,  avg # of iterations =  2.0

     total cpu time spent up to now is       50.1 secs

     total energy              =   -3342.05671231 Ry
     estimated scf accuracy    <       0.00000138 Ry

     iteration #  5     ecut=    45.00 Ry     beta= 0.40
     Davidson diagonalization with overlap
     ethr =  5.66E-10,  avg # of iterations =  1.1

     total cpu time spent up to now is       52.0 secs

     total energy              =   -3342.05671240 Ry
     estimated scf accuracy    <       0.00000015 Ry

     iteration #  6     ecut=    45.00 Ry     beta= 0.40
     Davidson diagonalization with overlap
     ethr =  6.34E-11,  avg # of iterations =  2.0

     total cpu time spent up to now is       54.4 secs

     total energy              =   -3342.05671242 Ry
     estimated scf accuracy    <       0.00000001 Ry

     iteration #  7     ecut=    45.00 Ry     beta= 0.40
     Davidson diagonalization with overlap
     ethr =  5.20E-12,  avg # of iterations =  2.6

     total cpu time spent up to now is       56.9 secs

     total energy              =   -3342.05671242 Ry
     estimated scf accuracy    <          4.1E-09 Ry

     iteration #  8     ecut=    45.00 Ry     beta= 0.40
     Davidson diagonalization with overlap
     ethr =  1.67E-12,  avg # of iterations =  2.0

     total cpu time spent up to now is       59.3 secs

     End of self-consistent calculation

          k = 0.0000 0.0000 0.0000 (  9771 PWs)   bands (ev):

   -89.2613 -89.2558 -89.2543 -89.2531 -89.2487 -89.2477 -89.2462 -89.2407
   -89.0010 -89.0008 -88.9999 -88.9957 -40.5303 -40.5288 -40.5284 -40.5269
   -40.5264 -40.5263 -40.5110 -40.5105 -40.5102 -40.5062 -40.5060 -40.5055
   -40.5008 -40.5001 -40.4996 -40.4893 -40.4890 -40.4885 -40.4861 -40.4858
   -40.4852 -40.4801 -40.4795 -40.4776 -40.2587 -40.2586 -40.2586 -40.2474
   -40.2471 -40.2468 -40.2418 -40.2413 -40.2412 -40.2391 -40.2387 -40.2384
     5.9014   8.0442   8.0509   8.0523   9.6679   9.6680   9.6681  10.2743
    10.2744  10.2745  10.5657  10.5669  10.5740  10.6015  10.6016  10.8066
    10.8072  10.8087  11.2329  11.2351  11.2373  11.2398  11.2409  11.2436
    11.6066  11.6067  11.6068  11.6744  11.6749  11.6753  12.1160  12.1165
    12.1178  12.1182  12.1193  12.1198  12.6645  12.6666  12.6669  13.1066
    13.1066  13.1068  13.4427  13.4428  13.4430  13.4789  13.4823  13.4830
    13.5596  13.5612  13.5622  13.7668  13.7669  13.7675  13.7782  13.7782
    13.8097  13.8098  14.1321  14.1348  14.1356  14.1362  14.1387  14.1396
    14.2651  14.2657  14.2663  14.2808  14.2817  14.2833  14.2840  14.2855
    14.2860  14.9136  17.2364  17.2373  17.2425  17.9347  17.9351  17.9356
    18.6372  18.6379  18.6387  19.2077  20.8657  20.8682  20.8714  22.7304
    22.7309  22.7314  23.1369  23.1396  23.1415  24.0059  24.5895  24.5928
    24.5959  24.6019

          k =-0.0000-0.0000 0.3333 (  9778 PWs)   bands (ev):

   -89.2613 -89.2558 -89.2543 -89.2531 -89.2487 -89.2476 -89.2462 -89.2407
   -89.0010 -89.0008 -88.9999 -88.9957 -40.5299 -40.5287 -40.5241 -40.5238
   -40.5207 -40.5175 -40.5148 -40.5139 -40.5081 -40.5078 -40.5070 -40.5041
   -40.5003 -40.4973 -40.4964 -40.4958 -40.4948 -40.4893 -40.4882 -40.4868
   -40.4866 -40.4858 -40.4801 -40.4785 -40.2559 -40.2537 -40.2537 -40.2500
   -40.2464 -40.2458 -40.2446 -40.2440 -40.2413 -40.2407 -40.2404 -40.2389
     6.3202   7.3971   8.1099   8.1149   9.3915   9.8723   9.8724  10.0645
    10.1532  10.1538  10.5432  10.5488  10.6595  10.7748  10.9056  10.9059
    11.0051  11.1032  11.1034  11.2140  11.2312  11.3236  11.3300  11.4123
    11.4558  11.4561  11.8271  11.8297  11.8667  11.8673  11.9236  11.9239
    12.1274  12.1275  12.4155  12.4157  12.5507  12.5509  12.8063  12.8091
    12.8375  12.8383  12.9399  13.0237  13.0249  13.0502  13.0695  13.1717
    13.1722  13.2654  13.2680  13.5199  13.5201  13.5790  13.6844  13.6886
    13.7771  13.7915  13.7995  13.8694  13.8696  13.9188  13.9550  13.9556
    14.3588  14.3591  14.3670  14.3688  14.4513  14.4514  14.7583  15.3217
    16.0902  16.0904  17.1852  18.0072  18.0332  18.0929  18.0938  18.4422
    18.7896  18.7929  19.4460  19.4462  20.5531  20.5532  21.4323  21.8136
    21.8145  21.9155  21.9181  22.1134  22.3756  22.3761  23.1520  24.7209
    24.7212  25.0827

          k =-0.0000 0.3333-0.0000 (  9778 PWs)   bands (ev):

   -89.2613 -89.2558 -89.2543 -89.2531 -89.2487 -89.2477 -89.2462 -89.2407
   -89.0010 -89.0008 -88.9999 -88.9957 -40.5299 -40.5288 -40.5241 -40.5238
   -40.5206 -40.5176 -40.5144 -40.5139 -40.5084 -40.5078 -40.5071 -40.5036
   -40.5006 -40.4971 -40.4963 -40.4959 -40.4949 -40.4889 -40.4885 -40.4870
   -40.4868 -40.4860 -40.4798 -40.4784 -40.2559 -40.2537 -40.2537 -40.2500
   -40.2464 -40.2458 -40.2446 -40.2440 -40.2413 -40.2407 -40.2405 -40.2389
     6.3202   7.3971   8.1103   8.1145   9.3916   9.8723   9.8724  10.0647
    10.1532  10.1536  10.5435  10.5484  10.6595  10.7748  10.9048  10.9066
    11.0051  11.1030  11.1036  11.2140  11.2312  11.3238  11.3298  11.4125
    11.4559  11.4560  11.8274  11.8289  11.8669  11.8676  11.9228  11.9245
    12.1273  12.1275  12.4150  12.4162  12.5508  12.5509  12.8072  12.8094
    12.8370  12.8375  12.9399  13.0237  13.0249  13.0502  13.0696  13.1718
    13.1723  13.2653  13.2679  13.5199  13.5201  13.5791  13.6844  13.6887
    13.7771  13.7915  13.7996  13.8693  13.8696  13.9187  13.9549  13.9559
    14.3588  14.3591  14.3669  14.3685  14.4514  14.4516  14.7584  15.3217
    16.0901  16.0904  17.1852  18.0074  18.0329  18.0926  18.0940  18.4423
    18.7898  18.7926  19.4461  19.4462  20.5526  20.5538  21.4322  21.8134
    21.8143  21.9161  21.9179  22.1134  22.3744  22.3773  23.1521  24.7209
    24.7211  25.0873

          k =-0.0000 0.3333 0.3333 (  9751 PWs)   bands (ev):

   -89.2613 -89.2557 -89.2543 -89.2531 -89.2487 -89.2477 -89.2462 -89.2407
   -89.0010 -89.0008 -88.9999 -88.9957 -40.5274 -40.5229 -40.5218 -40.5207
   -40.5178 -40.5161 -40.5151 -40.5114 -40.5092 -40.5077 -40.5072 -40.5032
   -40.5017 -40.5006 -40.4963 -40.4954 -40.4949 -40.4926 -40.4920 -40.4891
   -40.4882 -40.4858 -40.4852 -40.4793 -40.2530 -40.2517 -40.2507 -40.2498
   -40.2461 -40.2458 -40.2456 -40.2455 -40.2431 -40.2417 -40.2407 -40.2404
     6.7064   7.6325   7.6374   8.0205   9.5953   9.5992   9.9632  10.0435
    10.1862  10.5490  10.5628  10.5637  10.6551  10.9112  10.9161  10.9250
    11.0762  11.0883  11.0909  11.1930  11.1993  11.2668  11.2685  11.4390
    11.4537  11.5250  11.5731  11.5767  11.6805  11.8535  11.9678  11.9688
    12.0863  12.1735  12.3085  12.3096  12.3734  12.3747  12.4184  12.4232
    12.4410  12.5392  12.5414  12.7164  12.7847  12.8476  12.8488  12.9177
    13.2630  13.2637  13.2768  13.4284  13.5688  13.6810  13.6821  13.7271
    13.7301  13.7332  13.7568  13.9585  14.0365  14.0380  14.0919  14.1562
    14.2063  14.7534  15.1638  15.1648  15.3723  15.3724  15.5068  15.5108
    15.7827  16.2176  16.6511  17.4658  17.8810  18.2227  18.6659  18.6670
    18.9464  19.3750  19.5387  19.5415  19.9599  19.9616  21.0437  21.1831
    21.9831  21.9992  22.3129  22.6544  22.6561  22.7090  22.8054  22.9197
    22.9221  24.4298

          k =-0.0000 0.3333-0.3333 (  9751 PWs)   bands (ev):

   -89.2613 -89.2557 -89.2543 -89.2531 -89.2487 -89.2477 -89.2462 -89.2407
   -89.0010 -89.0008 -88.9999 -88.9957 -40.5275 -40.5234 -40.5213 -40.5205
   -40.5173 -40.5170 -40.5140 -40.5118 -40.5099 -40.5078 -40.5070 -40.5035
   -40.5015 -40.5004 -40.4964 -40.4953 -40.4938 -40.4931 -40.4927 -40.4894
   -40.4878 -40.4866 -40.4846 -40.4793 -40.2527 -40.2516 -40.2507 -40.2502
   -40.2460 -40.2459 -40.2456 -40.2455 -40.2432 -40.2417 -40.2409 -40.2402
     6.7063   7.6251   7.6466   8.0190   9.5821   9.6084   9.9715  10.0396
    10.1841  10.5492  10.5620  10.5672  10.6535  10.9132  10.9172  10.9254
    11.0736  11.0873  11.0926  11.1920  11.1989  11.2672  11.2707  11.4373
    11.4533  11.5235  11.5712  11.5760  11.6797  11.8562  11.9687  11.9743
    12.0887  12.1740  12.3026  12.3137  12.3719  12.3727  12.4178  12.4257
    12.4417  12.5387  12.5411  12.7151  12.7845  12.8448  12.8459  12.9207
    13.2625  13.2648  13.2776  13.4262  13.5678  13.6811  13.6835  13.7270
    13.7281  13.7304  13.7601  13.9611  14.0329  14.0387  14.0918  14.1560
    14.2065  14.7538  15.1610  15.1648  15.3622  15.3812  15.5091  15.5138
    15.7841  16.2189  16.6537  17.4616  17.8784  18.2231  18.6633  18.6715
    18.9440  19.3778  19.5231  19.5576  19.9558  19.9675  21.0396  21.1856
    21.9784  22.0051  22.3149  22.6360  22.6703  22.7140  22.8002  22.9116
    22.9337  24.4245

          k = 0.3333-0.0000-0.0000 (  9778 PWs)   bands (ev):

   -89.2613 -89.2558 -89.2543 -89.2531 -89.2487 -89.2477 -89.2462 -89.2407
   -89.0010 -89.0008 -88.9999 -88.9957 -40.5298 -40.5285 -40.5243 -40.5236
   -40.5209 -40.5172 -40.5150 -40.5143 -40.5081 -40.5075 -40.5070 -40.5048
   -40.4997 -40.4966 -40.4964 -40.4958 -40.4955 -40.4896 -40.4887 -40.4866
   -40.4860 -40.4852 -40.4805 -40.4787 -40.2560 -40.2538 -40.2537 -40.2497
   -40.2461 -40.2460 -40.2445 -40.2443 -40.2418 -40.2408 -40.2403 -40.2387
     6.3202   7.3971   8.1090   8.1158   9.3915   9.8723   9.8725  10.0645
    10.1532  10.1538  10.5422  10.5499  10.6593  10.7747  10.9050  10.9066
    11.0052  11.1030  11.1036  11.2141  11.2313  11.3221  11.3314  11.4125
    11.4557  11.4559  11.8270  11.8291  11.8667  11.8680  11.9230  11.9244
    12.1275  12.1277  12.4151  12.4160  12.5506  12.5508  12.8070  12.8094
    12.8368  12.8377  12.9399  13.0235  13.0251  13.0505  13.0696  13.1718
    13.1724  13.2643  13.2688  13.5199  13.5201  13.5791  13.6844  13.6886
    13.7773  13.7915  13.7994  13.8691  13.8696  13.9188  13.9546  13.9563
    14.3581  14.3589  14.3672  14.3693  14.4513  14.4517  14.7583  15.3217
    16.0900  16.0905  17.1852  18.0069  18.0324  18.0931  18.0947  18.4421
    18.7890  18.7933  19.4461  19.4462  20.5530  20.5538  21.4335  21.8126
    21.8129  21.9163  21.9191  22.1128  22.3747  22.3772  23.1520  24.7210
    24.7214  25.0837

          k = 0.3333-0.0000 0.3333 (  9751 PWs)   bands (ev):

   -89.2613 -89.2558 -89.2543 -89.2531 -89.2487 -89.2477 -89.2462 -89.2407
   -89.0010 -89.0008 -88.9999 -88.9957 -40.5268 -40.5231 -40.5218 -40.5209
   -40.5179 -40.5164 -40.5144 -40.5121 -40.5089 -40.5079 -40.5076 -40.5032
   -40.5017 -40.5004 -40.4964 -40.4961 -40.4940 -40.4926 -40.4921 -40.4888
   -40.4878 -40.4856 -40.4853 -40.4800 -40.2527 -40.2517 -40.2507 -40.2499
   -40.2464 -40.2462 -40.2454 -40.2453 -40.2431 -40.2417 -40.2406 -40.2405
     6.7062   7.6343   7.6374   8.0189   9.5928   9.5974   9.9703  10.0412
    10.1840  10.5486  10.5648  10.5654  10.6534  10.9125  10.9165  10.9273
    11.0732  11.0890  11.0910  11.1917  11.1988  11.2682  11.2701  11.4373
    11.4533  11.5232  11.5720  11.5750  11.6798  11.8564  11.9710  11.9725
    12.0890  12.1740  12.3062  12.3098  12.3715  12.3734  12.4188  12.4242
    12.4421  12.5378  12.5417  12.7149  12.7841  12.8448  12.8460  12.9208
    13.2625  13.2642  13.2781  13.4260  13.5677  13.6817  13.6830  13.7272
    13.7276  13.7299  13.7605  13.9614  14.0341  14.0372  14.0918  14.1561
    14.2065  14.7538  15.1617  15.1639  15.3710  15.3722  15.5097  15.5138
    15.7843  16.2190  16.6539  17.4619  17.8785  18.2223  18.6667  18.6682
    18.9432  19.3779  19.5381  19.5428  19.9612  19.9624  21.0396  21.1861
    21.9768  22.0055  22.3151  22.6510  22.6568  22.7130  22.8002  22.9221
    22.9237  24.4236

          k = 0.3333 0.0000-0.3333 (  9751 PWs)   bands (ev):

   -89.2613 -89.2558 -89.2543 -89.2531 -89.2487 -89.2477 -89.2462 -89.2407
   -89.0010 -89.0008 -88.9999 -88.9957 -40.5269 -40.5234 -40.5215 -40.5209
   -40.5175 -40.5167 -40.5140 -40.5124 -40.5092 -40.5080 -40.5076 -40.5032
   -40.5020 -40.5000 -40.4965 -40.4952 -40.4940 -40.4930 -40.4922 -40.4890
   -40.4876 -40.4861 -40.4849 -40.4800 -40.2527 -40.2522 -40.2508 -40.2495
   -40.2463 -40.2458 -40.2457 -40.2452 -40.2433 -40.2417 -40.2408 -40.2403
     6.7065   7.6260   7.6438   8.0205   9.5891   9.6058   9.9665  10.0398
    10.1866  10.5483  10.5599  10.5670  10.6553  10.9127  10.9149  10.9239
    11.0766  11.0883  11.0907  11.1932  11.1991  11.2666  11.2686  11.4390
    11.4539  11.5253  11.5721  11.5780  11.6806  11.8534  11.9668  11.9690
    12.0860  12.1734  12.3076  12.3105  12.3731  12.3756  12.4189  12.4220
    12.4413  12.5387  12.5421  12.7165  12.7851  12.8476  12.8488  12.9175
    13.2619  13.2636  13.2778  13.4288  13.5689  13.6807  13.6823  13.7272
    13.7313  13.7320  13.7569  13.9583  14.0367  14.0381  14.0920  14.1560
    14.2064  14.7534  15.1641  15.1651  15.3653  15.3793  15.5051  15.5120
    15.7826  16.2176  16.6508  17.4658  17.8811  18.2229  18.6646  18.6685
    18.9465  19.3753  19.5281  19.5519  19.9558  19.9650  21.0437  21.1825
    21.9823  22.0019  22.3131  22.6442  22.6651  22.7087  22.8058  22.9112
    22.9305  24.4299

          k = 0.3333 0.3333-0.0000 (  9751 PWs)   bands (ev):

   -89.2613 -89.2558 -89.2543 -89.2531 -89.2487 -89.2477 -89.2462 -89.2407
   -89.0010 -89.0008 -88.9999 -88.9957 -40.5269 -40.5230 -40.5220 -40.5208
   -40.5179 -40.5163 -40.5145 -40.5118 -40.5090 -40.5080 -40.5074 -40.5032
   -40.5018 -40.5005 -40.4963 -40.4956 -40.4945 -40.4927 -40.4920 -40.4892
   -40.4879 -40.4857 -40.4850 -40.4798 -40.2528 -40.2519 -40.2508 -40.2497
   -40.2464 -40.2459 -40.2456 -40.2452 -40.2431 -40.2417 -40.2406 -40.2405
     6.7064   7.6311   7.6395   8.0198   9.5930   9.5998   9.9681  10.0406
    10.1853  10.5486  10.5616  10.5666  10.6544  10.9131  10.9145  10.9262
    11.0749  11.0888  11.0907  11.1928  11.1988  11.2668  11.2697  11.4382
    11.4536  11.5244  11.5728  11.5759  11.6802  11.8548  11.9694  11.9699
    12.0873  12.1738  12.3081  12.3092  12.3729  12.3737  12.4195  12.4223
    12.4418  12.5384  12.5420  12.7156  12.7844  12.8464  12.8479  12.9189
    13.2618  13.2641  13.2781  13.4275  13.5684  13.6813  13.6825  13.7275
    13.7294  13.7312  13.7583  13.9596  14.0354  14.0379  14.0919  14.1561
    14.2064  14.7536  15.1633  15.1643  15.3695  15.3746  15.5083  15.5116
    15.7833  16.2182  16.6522  17.4642  17.8800  18.2224  18.6666  18.6672
    18.9452  19.3764  19.5352  19.5453  19.9592  19.9629  21.0421  21.1841
    21.9799  22.0030  22.3138  22.6511  22.6584  22.7100  22.8033  22.9172
    22.9265  24.4273

          k = 0.3333 0.3333 0.3333 (  9792 PWs)   bands (ev):

   -89.2612 -89.2558 -89.2543 -89.2531 -89.2487 -89.2477 -89.2462 -89.2407
   -89.0010 -89.0008 -88.9999 -88.9957 -40.5213 -40.5204 -40.5199 -40.5170
   -40.5158 -40.5151 -40.5125 -40.5115 -40.5112 -40.5075 -40.5073 -40.5044
   -40.4991 -40.4987 -40.4985 -40.4961 -40.4956 -40.4936 -40.4932 -40.4930
   -40.4915 -40.4875 -40.4871 -40.4848 -40.2522 -40.2508 -40.2504 -40.2501
   -40.2464 -40.2458 -40.2456 -40.2447 -40.2437 -40.2414 -40.2412 -40.2409
     7.0647   7.8156   7.8228   7.8257   9.4339   9.4388   9.4458   9.9014
    10.6106  10.6136  10.6152  10.6906  10.6916  10.9870  10.9916  10.9959
    10.9980  11.0012  11.0021  11.2018  11.2041  11.2052  11.2085  11.2379
    11.2397  11.4286  11.4321  11.4384  11.8523  11.8533  11.8656  11.8669
    11.8697  12.2383  12.2408  12.2442  12.3384  12.3414  12.3450  12.4336
    12.4358  12.4372  12.5888  12.7047  12.7106  12.7746  12.7762  12.7787
    13.5217  13.5242  13.5253  13.5873  13.5897  13.5910  13.6613  13.6639
    13.7650  13.7673  13.7712  13.8577  13.8625  13.8655  13.9077  13.9110
    14.3595  14.3621  14.3663  15.2207  15.9208  15.9230  15.9252  16.1994
    17.1956  17.1964  17.1978  17.5174  17.5205  17.5253  18.5566  18.5612
    19.4637  19.7373  19.7382  19.7409  20.0665  20.0763  21.2073  21.2084
    21.2119  21.2706  21.4242  21.4295  21.4313  22.6587  22.6654  22.6682
    24.4176  24.4218

          k = 0.3333 0.3333-0.3333 (  9792 PWs)   bands (ev):

   -89.2612 -89.2558 -89.2543 -89.2531 -89.2487 -89.2477 -89.2462 -89.2407
   -89.0010 -89.0008 -88.9999 -88.9957 -40.5224 -40.5202 -40.5187 -40.5176
   -40.5151 -40.5146 -40.5125 -40.5118 -40.5114 -40.5077 -40.5073 -40.5048
   -40.4993 -40.4988 -40.4984 -40.4955 -40.4952 -40.4941 -40.4939 -40.4923
   -40.4919 -40.4875 -40.4870 -40.4847 -40.2519 -40.2510 -40.2506 -40.2503
   -40.2462 -40.2454 -40.2452 -40.2449 -40.2439 -40.2420 -40.2411 -40.2405
     7.0649   7.8101   7.8233   7.8304   9.4279   9.4393   9.4521   9.9009
    10.6090  10.6143  10.6151  10.6909  10.6917  10.9863  10.9918  10.9949
    10.9980  11.0004  11.0037  11.2019  11.2046  11.2051  11.2099  11.2381
    11.2395  11.4298  11.4324  11.4367  11.8528  11.8531  11.8635  11.8674
    11.8701  12.2383  12.2409  12.2443  12.3385  12.3402  12.3443  12.4338
    12.4360  12.4382  12.5887  12.7048  12.7106  12.7722  12.7782  12.7792
    13.5228  13.5239  13.5253  13.5882  13.5891  13.5902  13.6612  13.6637
    13.7640  13.7678  13.7713  13.8597  13.8627  13.8649  13.9073  13.9106
    14.3586  14.3627  14.3669  15.2203  15.9174  15.9215  15.9306  16.1993
    17.1946  17.1958  17.1985  17.5177  17.5212  17.5241  18.5566  18.5611
    19.4651  19.7316  19.7387  19.7458  20.0669  20.0765  21.2079  21.2094
    21.2107  21.2717  21.4224  21.4266  21.4321  22.6442  22.6637  22.6854
    24.4192  24.4231

          k = 0.3333-0.3333 0.0000 (  9751 PWs)   bands (ev):

   -89.2613 -89.2558 -89.2543 -89.2531 -89.2487 -89.2477 -89.2462 -89.2407
   -89.0010 -89.0008 -88.9999 -88.9957 -40.5270 -40.5236 -40.5215 -40.5206
   -40.5174 -40.5167 -40.5141 -40.5122 -40.5095 -40.5079 -40.5074 -40.5033
   -40.5017 -40.5002 -40.4964 -40.4949 -40.4942 -40.4933 -40.4924 -40.4893
   -40.4877 -40.4861 -40.4846 -40.4798 -40.2526 -40.2520 -40.2507 -40.2497
   -40.2462 -40.2459 -40.2457 -40.2452 -40.2432 -40.2418 -40.2408 -40.2403
     6.7064   7.6306   7.6403   8.0196   9.5899   9.6024   9.9694  10.0399
    10.1851  10.5484  10.5629  10.5658  10.6543  10.9131  10.9164  10.9246
    11.0751  11.0881  11.0911  11.1916  11.1997  11.2676  11.2695  11.4380
    11.4536  11.5243  11.5730  11.5752  11.6801  11.8551  11.9688  11.9714
    12.0876  12.1736  12.3057  12.3113  12.3729  12.3737  12.4183  12.4236
    12.4417  12.5383  12.5419  12.7156  12.7848  12.8459  12.8471  12.9194
    13.2620  13.2639  13.2781  13.4272  13.5683  13.6819  13.6821  13.7270
    13.7290  13.7315  13.7587  13.9600  14.0348  14.0380  14.0919  14.1561
    14.2064  14.7536  15.1623  15.1649  15.3676  15.3761  15.5091  15.5116
    15.7835  16.2184  16.6526  17.4635  17.8796  18.2226  18.6652  18.6688
    18.9448  19.3766  19.5320  19.5486  19.9587  19.9637  21.0413  21.1845
    21.9793  22.0042  22.3140  22.6454  22.6625  22.7114  22.8026  22.9170
    22.9270  24.4267

          k = 0.3333-0.3333 0.3333 (  9792 PWs)   bands (ev):

   -89.2612 -89.2558 -89.2543 -89.2531 -89.2487 -89.2477 -89.2462 -89.2407
   -89.0010 -89.0008 -88.9999 -88.9957 -40.5225 -40.5205 -40.5184 -40.5176
   -40.5150 -40.5146 -40.5124 -40.5120 -40.5115 -40.5077 -40.5072 -40.5048
   -40.4991 -40.4989 -40.4986 -40.4957 -40.4952 -40.4944 -40.4934 -40.4924
   -40.4920 -40.4875 -40.4870 -40.4847 -40.2518 -40.2510 -40.2506 -40.2502
   -40.2465 -40.2458 -40.2453 -40.2447 -40.2438 -40.2421 -40.2410 -40.2405
     7.0644   7.8134   7.8211   7.8308   9.4272   9.4386   9.4486   9.9035
    10.6113  10.6148  10.6168  10.6900  10.6903  10.9893  10.9909  10.9943
    10.9994  11.0014  11.0028  11.2006  11.2036  11.2041  11.2057  11.2380
    11.2390  11.4302  11.4331  11.4366  11.8527  11.8530  11.8663  11.8695
    11.8715  12.2389  12.2414  12.2418  12.3418  12.3438  12.3469  12.4320
    12.4328  12.4345  12.5904  12.7063  12.7093  12.7721  12.7756  12.7789
    13.5214  13.5232  13.5239  13.5887  13.5899  13.5908  13.6624  13.6637
    13.7667  13.7697  13.7710  13.8566  13.8591  13.8613  13.9100  13.9117
    14.3589  14.3626  14.3641  15.2239  15.9169  15.9235  15.9286  16.1980
    17.1956  17.1968  17.1991  17.5193  17.5208  17.5241  18.5596  18.5619
    19.4629  19.7303  19.7366  19.7433  20.0660  20.0709  21.2111  21.2123
    21.2136  21.2716  21.4264  21.4297  21.4334  22.6425  22.6622  22.6817
    24.4177  24.4197

          k = 0.3333-0.3333-0.3333 (  9792 PWs)   bands (ev):

   -89.2612 -89.2558 -89.2543 -89.2531 -89.2487 -89.2477 -89.2462 -89.2407
   -89.0010 -89.0008 -88.9999 -88.9957 -40.5225 -40.5202 -40.5188 -40.5172
   -40.5159 -40.5144 -40.5123 -40.5117 -40.5116 -40.5077 -40.5074 -40.5047
   -40.4990 -40.4988 -40.4986 -40.4955 -40.4952 -40.4941 -40.4939 -40.4927
   -40.4915 -40.4875 -40.4870 -40.4848 -40.2521 -40.2511 -40.2505 -40.2503
   -40.2460 -40.2454 -40.2454 -40.2449 -40.2439 -40.2418 -40.2412 -40.2406
     7.0652   7.8137   7.8199   7.8293   9.4315   9.4423   9.4485   9.8994
    10.6088  10.6122  10.6147  10.6916  10.6922  10.9882  10.9925  10.9940
    10.9970  11.0004  11.0015  11.2024  11.2051  11.2062  11.2124  11.2386
    11.2396  11.4304  11.4328  11.4351  11.8529  11.8532  11.8635  11.8653
    11.8681  12.2400  12.2405  12.2438  12.3368  12.3388  12.3413  12.4360
    12.4384  12.4388  12.5875  12.7057  12.7096  12.7744  12.7769  12.7803
    13.5234  13.5247  13.5253  13.5880  13.5892  13.5899  13.6613  13.6630
    13.7646  13.7661  13.7698  13.8630  13.8644  13.8663  13.9067  13.9090
    14.3610  14.3625  14.3665  15.2178  15.9182  15.9241  15.9271  16.2004
    17.1946  17.1955  17.1977  17.5184  17.5212  17.5224  18.5560  18.5590
    19.4660  19.7357  19.7397  19.7452  20.0709  20.0772  21.2065  21.2075
    21.2081  21.2709  21.4219  21.4253  21.4293  22.6520  22.6676  22.6784
    24.4207  24.4236

     the Fermi energy is    17.0188 ev

!    total energy              =   -3342.05671242 Ry
     estimated scf accuracy    <          1.0E-09 Ry
     smearing contrib. (-TS)   =      -0.00106031 Ry
     internal energy E=F+TS    =   -3342.05565211 Ry

     convergence has been achieved in   8 iterations

     Forces acting on atoms (cartesian axes, Ry/au):

     atom    1 type  2   force =     0.00008170   -0.00020219    0.00024127
     atom    2 type  2   force =     0.00030476    0.00022893   -0.00014979
     atom    3 type  2   force =    -0.00025250   -0.00023520   -0.00026806
     atom    4 type  2   force =    -0.00013083    0.00023157    0.00020438
     atom    5 type  1   force =     0.00067832   -0.00039031   -0.00009770
     atom    6 type  1   force =    -0.00000838    0.00013530   -0.00054089
     atom    7 type  1   force =     0.00004247    0.00044542    0.00080775
     atom    8 type  1   force =     0.00041643   -0.00059969   -0.00003087
     atom    9 type  1   force =    -0.00020097    0.00010682    0.00002568
     atom   10 type  1   force =    -0.00143065    0.00002674    0.00010931
     atom   11 type  1   force =    -0.00022824   -0.00023238   -0.00087162
     atom   12 type  1   force =    -0.00053642   -0.00047853   -0.00069045
     atom   13 type  1   force =     0.00102645    0.00073951    0.00001161
     atom   14 type  1   force =    -0.00018168   -0.00057985    0.00020369
     atom   15 type  1   force =    -0.00006388    0.00020109    0.00022965
     atom   16 type  1   force =     0.00048341    0.00060279    0.00081605
     The non-local contrib.  to forces
     atom    1 type  2   force =    -0.00000879   -0.00107758   -0.00036869
     atom    2 type  2   force =    -0.00068710   -0.00029051   -0.00100167
     atom    3 type  2   force =     0.00101570    0.00156097    0.00177629
     atom    4 type  2   force =    -0.00028767    0.00019325   -0.00002707
     atom    5 type  1   force =     0.00159770   -0.00061212   -0.00009047
     atom    6 type  1   force =    -0.00060060    0.00039833   -0.00121472
     atom    7 type  1   force =    -0.00027965    0.00189144    0.00075252
     atom    8 type  1   force =     0.00019003   -0.00103217   -0.00040819
     atom    9 type  1   force =    -0.00081074   -0.00021745    0.00059509
     atom   10 type  1   force =    -0.00186780   -0.00100473    0.00092061
     atom   11 type  1   force =    -0.00087726   -0.00092674   -0.00144255
     atom   12 type  1   force =    -0.00064679   -0.00116895   -0.00118198
     atom   13 type  1   force =     0.00144601    0.00212335    0.00056984
     atom   14 type  1   force =    -0.00011787   -0.00067879   -0.00002354
     atom   15 type  1   force =     0.00097415   -0.00005407   -0.00037886
     atom   16 type  1   force =     0.00097257    0.00115254    0.00177693
     The ionic contribution  to forces
     atom    1 type  2   force =    -0.00383595    0.04436123    0.03490009
     atom    2 type  2   force =     0.07487333    0.02028194    0.03813393
     atom    3 type  2   force =    -0.07158288   -0.07733615   -0.09623506
     atom    4 type  2   force =     0.00065127    0.01259027    0.02355254
     atom    5 type  1   force =     0.20097204   -0.03455346    0.02994852
     atom    6 type  1   force =     0.08419770    0.00312943   -0.07483723
     atom    7 type  1   force =    -0.02452669    0.05922779    0.12310009
     atom    8 type  1   force =     0.16210750   -0.13151254    0.00479429
     atom    9 type  1   force =     0.05447222    0.06480582   -0.04464688
     atom   10 type  1   force =    -0.31209153   -0.04948870   -0.02755309
     atom   11 type  1   force =    -0.10046933    0.03166247   -0.24513881
     atom   12 type  1   force =    -0.19053318   -0.12543521   -0.18694512
     atom   13 type  1   force =     0.21514367    0.13485022   -0.03264530
     atom   14 type  1   force =    -0.09713513   -0.19314534    0.11478072
     atom   15 type  1   force =    -0.12843233    0.14235820    0.16732949
     atom   16 type  1   force =     0.13618929    0.09820401    0.17146182
     The local contribution  to forces
     atom    1 type  2   force =     0.00390833   -0.04356066   -0.03431367
     atom    2 type  2   force =    -0.07392961   -0.01976821   -0.03734059
     atom    3 type  2   force =     0.07039603    0.07564040    0.09432123
     atom    4 type  2   force =    -0.00050426   -0.01251450   -0.02331337
     atom    5 type  1   force =    -0.20197045    0.03474552   -0.03000168
     atom    6 type  1   force =    -0.08365456   -0.00336726    0.07547802
     atom    7 type  1   force =     0.02486213   -0.06066302   -0.12306989
     atom    8 type  1   force =    -0.16193347    0.13198486   -0.00436647
     atom    9 type  1   force =    -0.05390552   -0.06450942    0.04410981
     atom   10 type  1   force =     0.31254810    0.05049444    0.02675437
     atom   11 type  1   force =     0.10118721   -0.03098818    0.24576619
     atom   12 type  1   force =     0.19070464    0.12617275    0.18749653
     atom   13 type  1   force =    -0.21558396   -0.13621061    0.03210981
     atom   14 type  1   force =     0.09712774    0.19327813   -0.11460104
     atom   15 type  1   force =     0.12743262   -0.14213534   -0.16675700
     atom   16 type  1   force =    -0.13668829   -0.09878061   -0.17244557
     The core correction contribution to forces
     atom    1 type  2   force =     0.00001758    0.00007711    0.00002015
     atom    2 type  2   force =     0.00004573    0.00000135    0.00006025
     atom    3 type  2   force =    -0.00007887   -0.00009536   -0.00012629
     atom    4 type  2   force =     0.00001038   -0.00004106   -0.00001036
     atom    5 type  1   force =     0.00000000    0.00000000    0.00000000
     atom    6 type  1   force =     0.00000000    0.00000000    0.00000000
     atom    7 type  1   force =     0.00000000    0.00000000    0.00000000
     atom    8 type  1   force =     0.00000000    0.00000000    0.00000000
     atom    9 type  1   force =     0.00000000    0.00000000    0.00000000
     atom   10 type  1   force =     0.00000000    0.00000000    0.00000000
     atom   11 type  1   force =     0.00000000    0.00000000    0.00000000
     atom   12 type  1   force =     0.00000000    0.00000000    0.00000000
     atom   13 type  1   force =     0.00000000    0.00000000    0.00000000
     atom   14 type  1   force =     0.00000000    0.00000000    0.00000000
     atom   15 type  1   force =     0.00000000    0.00000000    0.00000000
     atom   16 type  1   force =     0.00000000    0.00000000    0.00000000
     The Hubbard contrib.    to forces
     atom    1 type  2   force =     0.00000000    0.00000000    0.00000000
     atom    2 type  2   force =     0.00000000    0.00000000    0.00000000
     atom    3 type  2   force =     0.00000000    0.00000000    0.00000000
     atom    4 type  2   force =     0.00000000    0.00000000    0.00000000
     atom    5 type  1   force =     0.00000000    0.00000000    0.00000000
     atom    6 type  1   force =     0.00000000    0.00000000    0.00000000
     atom    7 type  1   force =     0.00000000    0.00000000    0.00000000
     atom    8 type  1   force =     0.00000000    0.00000000    0.00000000
     atom    9 type  1   force =     0.00000000    0.00000000    0.00000000
     atom   10 type  1   force =     0.00000000    0.00000000    0.00000000
     atom   11 type  1   force =     0.00000000    0.00000000    0.00000000
     atom   12 type  1   force =     0.00000000    0.00000000    0.00000000
     atom   13 type  1   force =     0.00000000    0.00000000    0.00000000
     atom   14 type  1   force =     0.00000000    0.00000000    0.00000000
     atom   15 type  1   force =     0.00000000    0.00000000    0.00000000
     atom   16 type  1   force =     0.00000000    0.00000000    0.00000000
     The SCF correction term to forces
     atom    1 type  2   force =     0.00000057   -0.00000237    0.00000351
     atom    2 type  2   force =     0.00000246    0.00000429   -0.00000158
     atom    3 type  2   force =    -0.00000245   -0.00000513   -0.00000411
     atom    4 type  2   force =    -0.00000051    0.00000353    0.00000278
     atom    5 type  1   force =     0.00007907    0.00002968    0.00004606
     atom    6 type  1   force =     0.00004911   -0.00002527    0.00003317
     atom    7 type  1   force =    -0.00001329   -0.00001086    0.00002515
     atom    8 type  1   force =     0.00005241   -0.00003991   -0.00005038
     atom    9 type  1   force =     0.00004310    0.00002780   -0.00003221
     atom   10 type  1   force =    -0.00001939    0.00002566   -0.00001244
     atom   11 type  1   force =    -0.00006882    0.00002001   -0.00005632
     atom   12 type  1   force =    -0.00006106   -0.00004719   -0.00005975
     atom   13 type  1   force =     0.00002076   -0.00002352   -0.00002261
     atom   14 type  1   force =    -0.00005638   -0.00003392    0.00004768
     atom   15 type  1   force =    -0.00003829    0.00003223    0.00003615
     atom   16 type  1   force =     0.00000989    0.00002677    0.00002300

     Total force =     0.003200     Total SCF correction =     0.000239


     Computing stress (Cartesian axis) and pressure

          total   stress  (Ry/bohr**3)                   (kbar)     P=      -84.50
  -0.00057444  -0.00000017   0.00000212          -84.50       -0.02        0.31
  -0.00000017  -0.00057440  -0.00000160           -0.02      -84.50       -0.24
   0.00000212  -0.00000160  -0.00057443            0.31       -0.24      -84.50


     Entering Dynamics;  it =     2   time =  0.00097 pico-seconds

  new lattice vectors (alat unit) :
   0.999968313   0.000002270   0.000002095
   0.000002270   0.999967832   0.000004228
   0.000002095   0.000004228   0.999967459
  new unit-cell volume =   1914.8816 (a.u.)^3
  new positions in cryst coord
Si       0.000238657  -0.002373101  -0.000903732
Si      -0.000665131   0.498400236   0.497257506
Si       0.501577508   0.004354640   0.503906631
Si       0.498848969   0.499618255  -0.000260371
Au       0.247973024   0.749976714   0.748958332
Au       0.249917299   0.249689367   0.750983823
Au       0.500816469  -0.001167641  -0.001235167
Au       0.249574674   0.250273716   0.249995773
Au       0.250941310   0.750371376   0.250095832
Au       0.501107493   0.499980190   0.499645658
Au       0.750519431   0.750866585   0.251553292
Au       0.750907766   0.250568575   0.250439380
Au      -0.001414522  -0.000581715   0.500281069
Au       0.750635259   0.251485189   0.750247482
Au       0.749655444   0.748691653   0.749587270
Au      -0.000633646   0.499845987  -0.000552749
  new positions in cart coord (alat unit)
Si       0.000238642  -0.002373028  -0.000903712
Si      -0.000662936   0.498386304   0.497243431
Si       0.501562681   0.004357769   0.503891303
Si       0.498834296   0.499603314  -0.000257205
Au       0.247968438   0.749956318   0.748937650
Au       0.249911520   0.249685077   0.750960964
Au       0.500800594  -0.001166472  -0.001234083
Au       0.249567858   0.250267289   0.249989219
Au       0.250935585   0.750348865   0.250091392
Au       0.501093796   0.499967357   0.499632563
Au       0.750497881   0.750845198   0.251549853
Au       0.750885066   0.250563278   0.250433863
Au      -0.001413431  -0.000579584   0.500264784
Au       0.750613616   0.251481975   0.750225704
Au       0.749634960   0.748672440   0.749567614
Au      -0.000632492   0.499829905  -0.000550619

     Ekin =     0.28500987 Ry    T = 1764.7 K  Etot =    -3341.77170255
     new unit-cell volume =   1914.88161 a.u.^3 (   283.75618 Ang^3 )
     density =     14.48919 g/cm^3

CELL_PARAMETERS (angstrom)
   6.571259771   0.000014918   0.000013768
   0.000014918   6.571256608   0.000027784
   0.000013768   0.000027784   6.571254156

ATOMIC_POSITIONS (crystal)
Si            0.0002386565       -0.0023731015       -0.0009037320
Si           -0.0006651306        0.4984002361        0.4972575064
Si            0.5015775083        0.0043546397        0.5039066312
Si            0.4988489692        0.4996182547       -0.0002603706
Au            0.2479730236        0.7499767137        0.7489583318
Au            0.2499172990        0.2496893670        0.7509838231
Au            0.5008164690       -0.0011676409       -0.0012351673
Au            0.2495746738        0.2502737160        0.2499957733
Au            0.2509413095        0.7503713755        0.2500958318
[...]
    22.3528  22.4907  22.6474  22.8527  23.1597  23.3407  23.6412  24.2026
    24.9434  25.0602

          k = 0.3387-0.3367-0.3373 (  9792 PWs)   bands (ev):

   -88.9816 -88.8527 -88.8007 -88.6134 -88.5986 -88.5952 -88.5730 -88.5558
   -88.5141 -88.4440 -88.4115 -88.3683 -40.4676 -40.2401 -40.2066 -40.2008
   -40.1657 -40.1172 -40.0686 -40.0590 -39.9879 -39.9819 -39.9793 -39.9568
   -39.9518 -39.9336 -39.9056 -39.8994 -39.8642 -39.8577 -39.8483 -39.8388
   -39.8215 -39.8176 -39.7959 -39.7743 -39.7666 -39.7394 -39.7309 -39.7186
   -39.6994 -39.6843 -39.6646 -39.6516 -39.6351 -39.6058 -39.5919 -39.5698
     7.1347   7.6539   8.0378   8.4624   9.5205   9.7349   9.9844  10.3522
    10.5948  10.7169  10.8016  10.9154  10.9569  11.0249  11.1055  11.2262
    11.2915  11.3645  11.4311  11.4909  11.5400  11.5821  11.6662  11.7021
    11.7797  11.8253  11.9443  12.0614  12.1191  12.2914  12.3572  12.3820
    12.4192  12.5597  12.6226  12.6516  12.6896  12.7690  12.8166  12.8870
    12.9627  13.0495  13.1106  13.2594  13.2974  13.3607  13.4309  13.5308
    13.8039  13.8817  13.9890  14.0153  14.1109  14.1442  14.2296  14.3103
    14.3731  14.4456  14.5120  14.5334  14.6209  14.7178  14.7821  14.8584
    15.0629  15.1527  15.2865  15.8015  16.4570  16.7577  16.8724  17.3431
    17.7338  17.9608  18.0472  18.1964  18.4192  18.5864  19.5728  19.6862
    20.1839  20.5166  20.6981  20.8717  20.9664  21.1454  21.8669  21.9754
    22.3335  22.3590  22.5544  22.7418  23.1892  23.3732  24.0366  24.2142
    24.7958  24.9751

     the Fermi energy is    17.6380 ev

!    total energy              =   -3341.93157642 Ry
     estimated scf accuracy    <          5.2E-10 Ry
     smearing contrib. (-TS)   =       0.00312243 Ry
     internal energy E=F+TS    =   -3341.93469886 Ry

     convergence has been achieved in  11 iterations

     Forces acting on atoms (cartesian axes, Ry/au):

     atom    1 type  2   force =    -0.00641721    0.01167575    0.02171998
     atom    2 type  2   force =     0.02694398    0.04180619    0.03263098
     atom    3 type  2   force =    -0.02609589   -0.05489406   -0.04983045
     atom    4 type  2   force =     0.00043847    0.00856255    0.00447345
     atom    5 type  1   force =     0.06107888   -0.03469094   -0.00279430
     atom    6 type  1   force =    -0.02762187    0.00284029   -0.00783665
     atom    7 type  1   force =    -0.00907962    0.02068465    0.03095017
     atom    8 type  1   force =     0.03035202   -0.02761239    0.00034914
     atom    9 type  1   force =    -0.01199556    0.00802426    0.00296985
     atom   10 type  1   force =    -0.08000691   -0.00859444   -0.01454812
     atom   11 type  1   force =    -0.04150697   -0.03847321   -0.08612213
     atom   12 type  1   force =    -0.04652976   -0.04994341   -0.04556675
     atom   13 type  1   force =     0.06138486    0.08735855    0.03212591
     atom   14 type  1   force =     0.01389347   -0.03661084    0.00604116
     atom   15 type  1   force =     0.00228382    0.02738571    0.00949978
     atom   16 type  1   force =     0.05287829    0.04248134    0.06593797
     The non-local contrib.  to forces
     atom    1 type  2   force =    -0.01600224   -0.04424918   -0.01034054
     atom    2 type  2   force =    -0.00778825    0.03007056   -0.00057143
     atom    3 type  2   force =     0.00945613   -0.02186969   -0.01722537
     atom    4 type  2   force =    -0.02177953    0.00421115   -0.00676211
     atom    5 type  1   force =     0.08489992   -0.02012938   -0.00104708
     atom    6 type  1   force =    -0.03415114    0.00132759   -0.03754134
     atom    7 type  1   force =    -0.02479425    0.06181005    0.03461857
     atom    8 type  1   force =     0.01684657   -0.05633083   -0.00858930
     atom    9 type  1   force =    -0.04842903   -0.01313357    0.01942847
     atom   10 type  1   force =    -0.07746533   -0.04601504    0.01896794
     atom   11 type  1   force =    -0.04462612   -0.04206509   -0.07435254
     atom   12 type  1   force =    -0.03543440   -0.05444724   -0.02859882
     atom   13 type  1   force =     0.06119593    0.09831454    0.03085045
     atom   14 type  1   force =    -0.01754007   -0.05278812   -0.02128500
     atom   15 type  1   force =     0.03335385    0.01832769   -0.01563938
     atom   16 type  1   force =     0.04881466    0.04914372    0.07701855
     The ionic contribution  to forces
     atom    1 type  2   force =    -0.02053716    2.55533769    1.60257504
     atom    2 type  2   force =     2.68310326    0.96988049    1.83648819
     atom    3 type  2   force =    -2.57714468   -3.33302672   -3.52014915
     atom    4 type  2   force =     0.31152800    0.14978400    0.60301360
     atom    5 type  1   force =    12.20825793   -0.42464496    1.88353686
     atom    6 type  1   force =     3.93919707   -1.72485159   -2.53578459
     atom    7 type  1   force =    -2.42548308    3.08713569    4.25388354
     atom    8 type  1   force =     7.89848949   -5.61012041    1.01553463
     atom    9 type  1   force =     0.81896887    3.39053055   -2.33192332
     atom   10 type  1   force =   -13.76215921   -3.34526916   -2.39751934
     atom   11 type  1   force =    -4.64892280    1.61017499  -11.74481969
     atom   12 type  1   force =    -7.98140042   -6.21216164   -6.96544604
     atom   13 type  1   force =     7.86796094    8.03398877   -0.12801540
     atom   14 type  1   force =    -4.33938061  -10.40696596    3.57599706
     atom   15 type  1   force =    -6.75275097    7.07150805    6.30544561
     atom   16 type  1   force =     6.78027337    4.18870021    8.54718301
     The local contribution  to forces
     atom    1 type  2   force =     0.02723702   -2.50225725   -1.57045667
     atom    2 type  2   force =    -2.64758958   -0.95198285   -1.79985046
     atom    3 type  2   force =     2.54129483    3.29327140    3.48109496
     atom    4 type  2   force =    -0.29084592   -0.14442696   -0.59243579
     atom    5 type  1   force =   -12.23205588    0.41010425   -1.88524024
     atom    6 type  1   force =    -3.93264693    1.72633256    2.56551658
     atom    7 type  1   force =     2.44118156   -3.12825353   -4.25754693
     atom    8 type  1   force =    -7.88496742    5.63881556   -1.00662144
     atom    9 type  1   force =    -0.78252318   -3.36934352    2.31542407
     atom   10 type  1   force =    13.75958970    3.38267370    2.36400090
     atom   11 type  1   force =     4.65202555   -1.60655644   11.73299720
     atom   12 type  1   force =     7.97028738    6.21664308    6.94844052
     atom   13 type  1   force =    -7.86776207   -8.04493146    0.12930033
     atom   14 type  1   force =     4.37078995   10.42310212   -3.54863581
     atom   15 type  1   force =     6.72165596   -7.06242250   -6.28025621
     atom   16 type  1   force =    -6.77619940   -4.19535466   -8.55825718
     The core correction contribution to forces
     atom    1 type  2   force =     0.00288461    0.00284432   -0.00005717
     atom    2 type  2   force =    -0.00078233   -0.00616375   -0.00343567
     atom    3 type  2   force =     0.00029303    0.00672974    0.00645464
     atom    4 type  2   force =     0.00153237   -0.00100644    0.00065777
     atom    5 type  1   force =     0.00000000    0.00000000    0.00000000
     atom    6 type  1   force =     0.00000000    0.00000000    0.00000000
     atom    7 type  1   force =     0.00000000    0.00000000    0.00000000
     atom    8 type  1   force =     0.00000000    0.00000000    0.00000000
     atom    9 type  1   force =     0.00000000    0.00000000    0.00000000
     atom   10 type  1   force =     0.00000000    0.00000000    0.00000000
     atom   11 type  1   force =     0.00000000    0.00000000    0.00000000
     atom   12 type  1   force =     0.00000000    0.00000000    0.00000000
     atom   13 type  1   force =     0.00000000    0.00000000    0.00000000
     atom   14 type  1   force =     0.00000000    0.00000000    0.00000000
     atom   15 type  1   force =     0.00000000    0.00000000    0.00000000
     atom   16 type  1   force =     0.00000000    0.00000000    0.00000000
     The Hubbard contrib.    to forces
     atom    1 type  2   force =     0.00000000    0.00000000    0.00000000
     atom    2 type  2   force =     0.00000000    0.00000000    0.00000000
     atom    3 type  2   force =     0.00000000    0.00000000    0.00000000
     atom    4 type  2   force =     0.00000000    0.00000000    0.00000000
     atom    5 type  1   force =     0.00000000    0.00000000    0.00000000
     atom    6 type  1   force =     0.00000000    0.00000000    0.00000000
     atom    7 type  1   force =     0.00000000    0.00000000    0.00000000
     atom    8 type  1   force =     0.00000000    0.00000000    0.00000000
     atom    9 type  1   force =     0.00000000    0.00000000    0.00000000
     atom   10 type  1   force =     0.00000000    0.00000000    0.00000000
     atom   11 type  1   force =     0.00000000    0.00000000    0.00000000
     atom   12 type  1   force =     0.00000000    0.00000000    0.00000000
     atom   13 type  1   force =     0.00000000    0.00000000    0.00000000
     atom   14 type  1   force =     0.00000000    0.00000000    0.00000000
     atom   15 type  1   force =     0.00000000    0.00000000    0.00000000
     atom   16 type  1   force =     0.00000000    0.00000000    0.00000000
     The SCF correction term to forces
     atom    1 type  2   force =    -0.00000185   -0.00000051    0.00000036
     atom    2 type  2   force =    -0.00000154    0.00000104    0.00000139
     atom    3 type  2   force =     0.00000240    0.00000053   -0.00000451
     atom    4 type  2   force =     0.00000115    0.00000011    0.00000102
     atom    5 type  1   force =    -0.00002548   -0.00002152   -0.00004280
     atom    6 type  1   force =    -0.00002328    0.00003105   -0.00002626
     atom    7 type  1   force =     0.00001375   -0.00000825   -0.00000397
     atom    8 type  1   force =    -0.00001902    0.00002260    0.00002629
     atom    9 type  1   force =    -0.00001462   -0.00002988    0.00004168
     atom   10 type  1   force =     0.00002552    0.00001538    0.00000342
     atom   11 type  1   force =     0.00001400   -0.00002735    0.00005395
     atom   12 type  1   force =     0.00001527    0.00002171    0.00003862
     atom   13 type  1   force =    -0.00001233   -0.00001398   -0.00000843
     atom   14 type  1   force =     0.00002180    0.00004043   -0.00003405
     atom   15 type  1   force =     0.00002258   -0.00002821   -0.00004920
     atom   16 type  1   force =    -0.00001274   -0.00000860   -0.00000537

     Total force =     0.259692     Total SCF correction =     0.000156


     Computing stress (Cartesian axis) and pressure

          total   stress  (Ry/bohr**3)                   (kbar)     P=       36.76
   0.00024820   0.00010474   0.00021509           36.51       15.41       31.64
   0.00010474   0.00027573   0.00017735           15.41       40.56       26.09
   0.00021509   0.00017735   0.00022581           31.64       26.09       33.22


     Entering Dynamics;  it =    50   time =  0.04741 pico-seconds

  new lattice vectors (alat unit) :
   0.988539362   0.001874842   0.003054260
   0.001874842   0.988598289   0.003004247
   0.003054260   0.003004247   0.988013149
  new unit-cell volume =   1849.0584 (a.u.)^3
  new positions in cryst coord
Si       0.005738055  -0.060632057  -0.013949791
Si      -0.003888507   0.474835805   0.437885810
Si       0.528164954   0.089804087   0.581437554
Si       0.468340337   0.496056791  -0.002313426
Au       0.202465606   0.747558624   0.723689231
Au       0.246678739   0.242570864   0.773633771
Au       0.520503926  -0.028045899  -0.028708253
Au       0.241112887   0.255033954   0.249986361
Au       0.272760668   0.759748723   0.252403526
Au       0.521977231   0.499303270   0.490536945
Au       0.761085312   0.769918930   0.284071657
Au       0.770118174   0.261441603   0.257789849
Au      -0.031212379  -0.009969701   0.508493719
Au       0.766453311   0.285139078   0.757113508
Au       0.741321722   0.718449552   0.740539588
Au      -0.013030613   0.498841786  -0.009986248
  new positions in cart coord (alat unit)
Si       0.005516011  -0.059971898  -0.013947205
Si      -0.001616283   0.470730092   0.434051586
Si       0.524056077   0.091517175   0.576350896
Si       0.463895820   0.491272009   0.000635015
Au       0.203757111   0.741588909   0.717878711
Au       0.246669304   0.242591812   0.765842502
Au       0.514398354  -0.026836512  -0.026858634
Au       0.239591251   0.253329200   0.248492419
Au       0.271829972   0.752355954   0.252493557
Au       0.518429380   0.496062678   0.487751236
Au       0.754673893   0.763420873   0.285304112
Au       0.762569647   0.260679036   0.257837337
Au      -0.029320285  -0.008386907   0.502273199
Au       0.760516279   0.285599540   0.751235678
Au       0.736434482   0.713872623   0.736085440
Au      -0.011976525   0.493099704  -0.008407699

     Ekin =     0.15990108 Ry    T = 1518.0 K  Etot =    -3341.77167535
     new unit-cell volume =   1849.05841 a.u.^3 (   274.00219 Ang^3 )
     density =     15.00498 g/cm^3

CELL_PARAMETERS (angstrom)
   6.496154781   0.012320464   0.020070973
   0.012320464   6.496542021   0.019742316
   0.020070973   0.019742316   6.492696796

ATOMIC_POSITIONS (crystal)
Si            0.0057380546       -0.0606320566       -0.0139497908
Si           -0.0038885067        0.4748358053        0.4378858101
Si            0.5281649541        0.0898040868        0.5814375541
Si            0.4683403373        0.4960567914       -0.0023134260
Au            0.2024656062        0.7475586243        0.7236892315
Au            0.2466787389        0.2425708642        0.7736337707
Au            0.5205039256       -0.0280458993       -0.0287082535
Au            0.2411128868        0.2550339539        0.2499863612
Au            0.2727606684        0.7597487234        0.2524035256
Au            0.5219772305        0.4993032702        0.4905369446
Au            0.7610853120        0.7699189297        0.2840716567
Au            0.7701181740        0.2614416034        0.2577898491
Au           -0.0312123789       -0.0099697010        0.5084937193
Au            0.7664533110        0.2851390784        0.7571135077
Au            0.7413217221        0.7184495521        0.7405395878
Au           -0.0130306129        0.4988417856       -0.0099862477



     Maximum number of iterations reached, stopping

     Writing all to output data dir ./out/si_au3.save/

     init_run     :      1.72s CPU      1.34s WALL (       1 calls)
     electrons    :   2039.91s CPU   1467.53s WALL (      50 calls)
     update_pot   :     25.99s CPU     14.06s WALL (      49 calls)
     forces       :     50.51s CPU     30.14s WALL (      50 calls)
     stress       :    358.54s CPU    188.24s WALL (      50 calls)

     Called by init_run:
     wfcinit      :      0.91s CPU      0.63s WALL (       1 calls)
     potinit      :      0.41s CPU      0.29s WALL (       1 calls)
     hinit0       :      0.36s CPU      0.38s WALL (       1 calls)

     Called by electrons:
     c_bands      :   1801.11s CPU   1327.09s WALL (     542 calls)
     sum_band     :    217.91s CPU    128.08s WALL (     542 calls)
     v_of_rho     :      6.22s CPU      3.77s WALL (     585 calls)
     newd         :     13.89s CPU      7.17s WALL (     585 calls)
     mix_rho      :      0.94s CPU      0.79s WALL (     542 calls)

     Called by c_bands:
     init_us_2    :     11.36s CPU     10.51s WALL (    8295 calls)
     init_us_2:cp :     11.33s CPU     10.49s WALL (    8295 calls)
     cegterg      :   1741.77s CPU   1265.13s WALL (    3794 calls)

     Called by *egterg:
     cdiaghg      :    369.85s CPU    358.42s WALL (   12708 calls)
     h_psi        :    948.96s CPU    563.78s WALL (   13107 calls)
     s_psi        :    161.00s CPU     93.23s WALL (   13107 calls)
     g_psi        :      1.21s CPU      0.73s WALL (    9306 calls)

     Called by h_psi:
     h_psi:calbec :    199.47s CPU    115.44s WALL (   13107 calls)
     vloc_psi     :    640.28s CPU    347.32s WALL (   13107 calls)
     add_vuspsi   :    106.00s CPU     99.27s WALL (   13107 calls)

     General routines
     calbec       :    306.00s CPU    180.73s WALL (   18651 calls)
     fft          :      6.34s CPU      4.33s WALL (    8811 calls)
     ffts         :      0.84s CPU      0.56s WALL (    1127 calls)
     fftw         :    695.46s CPU    379.58s WALL ( 3411758 calls)
     interpolate  :      0.96s CPU      0.58s WALL (     585 calls)

     Parallel routines

     PWSCF        :  41m19.47s CPU  28m24.51s WALL


   This run was terminated on:   8:38:52  15Jan2025            

=------------------------------------------------------------------------------=
   JOB DONE.
=------------------------------------------------------------------------------=
Note: The following floating-point exceptions are signalling: IEEE_INVALID_FLAG IEEE_DENORMAL
Note: The following floating-point exceptions are signalling: IEEE_INVALID_FLAG IEEE_DENORMAL
Note: The following floating-point exceptions are signalling: IEEE_INVALID_FLAG IEEE_DENORMAL
Note: The following floating-point exceptions are signalling: IEEE_INVALID_FLAG IEEE_DENORMAL
Note: The following floating-point exceptions are signalling: IEEE_INVALID_FLAG IEEE_DENORMAL
Note: The following floating-point exceptions are signalling: IEEE_INVALID_FLAG IEEE_DENORMAL
Note: The following floating-point exceptions are signalling: IEEE_INVALID_FLAG IEEE_DENORMAL
Note: The following floating-point exceptions are signalling: IEEE_INVALID_FLAG IEEE_DENORMAL
Note: The following floating-point exceptions are signalling: IEEE_INVALID_FLAG IEEE_DENORMAL
Note: The following floating-point exceptions are signalling: IEEE_INVALID_FLAG IEEE_DENORMAL
Note: The following floating-point exceptions are signalling: IEEE_INVALID_FLAG IEEE_DENORMAL
Note: The following floating-point exceptions are signalling: IEEE_INVALID_FLAG IEEE_DENORMAL
Note: The following floating-point exceptions are signalling: IEEE_INVALID_FLAG IEEE_DENORMAL
Note: The following floating-point exceptions are signalling: IEEE_INVALID_FLAG IEEE_DENORMAL
Note: The following floating-point exceptions are signalling: IEEE_INVALID_FLAG IEEE_DENORMAL
Note: The following floating-point exceptions are signalling: IEEE_INVALID_FLAG IEEE_DENORMAL
Note: The following floating-point exceptions are signalling: IEEE_INVALID_FLAG IEEE_DENORMAL
Note: The following floating-point exceptions are signalling: IEEE_INVALID_FLAG IEEE_DENORMAL
Note: The following floating-point exceptions are signalling: IEEE_INVALID_FLAG IEEE_DENORMAL
Note: The following floating-point exceptions are signalling: IEEE_INVALID_FLAG IEEE_DENORMAL
Note: The following floating-point exceptions are signalling: IEEE_INVALID_FLAG IEEE_DENORMAL
Note: The following floating-point exceptions are signalling: IEEE_INVALID_FLAG IEEE_DENORMAL
Note: The following floating-point exceptions are signalling: IEEE_INVALID_FLAG IEEE_DENORMAL
Note: The following floating-point exceptions are signalling: IEEE_INVALID_FLAG IEEE_DENORMAL
Note: The following floating-point exceptions are signalling: IEEE_INVALID_FLAG IEEE_DENORMAL
Note: The following floating-point exceptions are signalling: IEEE_INVALID_FLAG IEEE_DENORMAL
Note: The following floating-point exceptions are signalling: IEEE_INVALID_FLAG IEEE_DENORMAL
Note: The following floating-point exceptions are signalling: IEEE_INVALID_FLAG IEEE_DENORMAL
Note: The following floating-point exceptions are signalling: IEEE_INVALID_FLAG IEEE_DENORMAL
Note: The following floating-point exceptions are signalling: IEEE_INVALID_FLAG IEEE_DENORMAL
Note: The following floating-point exceptions are signalling: IEEE_INVALID_FLAG IEEE_DENORMAL
Note: The following floating-point exceptions are signalling: IEEE_INVALID_FLAG IEEE_DENORMAL
