24
Lattice="6.002279945560249 -0.008085887761333552 0.0850308835480993 -0.016171775522667103 12.896744860991294 -0.004712265696100102 0.0850308835480993 -0.0023591342911685863 5.961196192153741" Properties=species:S:1:pos:R:3:forces:R:3 energy=-61038.01462687769 free_energy=-61038.01462687769 stress="0.010139214544647545 0.008448886375065355 0.004416338129109363 0.008448886375065355 0.007196519387933303 -0.0005362040472764798 0.004416338129109363 -0.0005362040472764798 0.024901352681824328" pbc="T T T"
Au       1.16550514       4.68695225       4.66649273       0.04397718       0.47277085       0.14012384
Au       1.29289647      11.74554931       4.33043268      -0.05161747      -0.28728915      -0.35912038
Au       3.31919365      -0.24583093      -0.12956502       0.21006427       0.29645205      -0.64081198
Au       2.72626236       6.44067664       0.40744120      -0.50974666       0.65248119       0.52782562
Au       1.43295203       1.29507601       1.36671842       0.32802957       0.01255521       0.32069421
Au       1.47394100      11.12900608       1.33393737       0.36677455      -0.02725806      -0.15462743
Au       2.91615268       3.34613833       3.32290258      -0.62685706      -0.60862460      -0.06576368
Au       2.80942787       9.65251154       3.11161489       0.27121667      -0.46277774       0.34496568
Au       4.55270395       4.60119258       1.70044088       0.90768838       0.31526790      -0.14424249
Au       4.76304643      11.43806034       1.76513068      -0.52629222       0.48231838       0.53692939
Au       4.58161243       1.96554532       1.04534693      -0.34642093       0.25886175       0.36753097
Au       5.07009197       7.73397913       1.70790973      -0.08505621       0.67229540       0.17974582
Au       4.85451288       1.78126609       4.15264803       0.75676616      -0.59564078      -0.19703623
Au       4.45474974       7.80907850       4.53349561      -0.48237161       1.39516311      -0.79559419
Au       4.64599672       5.24123344       4.78190905      -0.51383214      -1.14196832      -0.34229996
Au      -0.18422391       9.67212981      -0.26749078      -0.01158616       0.27335583      -0.40202772
Si      -0.13180408       0.26974630      -0.24290383      -0.06143882      -0.32449944      -0.05076746
Si       0.40661558       5.98748541       0.76236009      -0.41141096      -0.12006435      -0.73690568
Si       0.43185466       3.19682085       2.69754478      -0.60782293      -0.23315972       0.21451305
Si      -0.12638983       9.78699105       3.02982805       0.53259168      -0.40187422       0.51965363
Si       3.18746727      -0.00433197       3.11508700       0.00617888       0.08820401      -0.26993858
Si       3.13333082       6.44814721       2.89468215      -0.00255979      -0.07267454       0.54616479
Si       2.44391832       3.43166431       0.25283890       1.12206542      -0.75249916       0.33894802
Si       3.14665164       9.29797515       0.22591273      -0.30834006       0.10860443       0.12204050
24
Lattice="6.002279945560249 -0.008085887761333552 0.0850308835480993 -0.016171775522667103 12.896744860991294 -0.004712265696100102 0.0850308835480993 -0.0023591342911685863 5.961196192153741" Properties=species:S:1:pos:R:3:forces:R:3 energy=-61038.03776049963 free_energy=-61038.03776049963 stress="0.01036508131798661 0.008332280357935025 0.004380529982116584 0.008332280357935025 0.007567455064473881 -0.0005683395638084606 0.004380529982116584 -0.0005683395638084606 0.02503264922079785" pbc="T T T"
Au       1.16478359       4.68806260       4.66782801       0.05973984       0.47608089       0.11737703
Au       1.29102846      11.74593579       4.32990947      -0.02212151      -0.29192922      -0.36858564
Au       3.32161120      -0.24489003      -0.13073204       0.18976335       0.28742645      -0.63877670
Au       2.72531032       6.44177296       0.41041147      -0.50447512       0.64579452       0.51885376
Au       1.43222109       1.29542131       1.36642511       0.33275063       0.01450694       0.31855325
Au       1.47360203      11.12932558       1.33366586       0.37972365      -0.02547758      -0.15378308
Au       2.91600313       3.34356300       3.32145101      -0.63258085      -0.59283237      -0.06354764
Au       2.80980168       9.65176969       3.11255676       0.25680076      -0.45226964       0.33579379
Au       4.55434408       4.60255117       1.70006574       0.89182441       0.28607791      -0.13002352
Au       4.76240449      11.43823689       1.76635900      -0.51621427       0.45978935       0.55112110
Au       4.58327000       1.96369119       1.04592723      -0.34893084       0.27401866       0.36515553
Au       5.07062234       7.73413547       1.70624381      -0.09492847       0.69249013       0.19436486
Au       4.85684874       1.78007242       4.15131417       0.74503705      -0.59347463      -0.18310548
Au       4.45239458       7.81085136       4.53301223      -0.46646702       1.36079389      -0.79144649
Au       4.64425520       5.23930002       4.78237628      -0.52719416      -1.10876047      -0.34430619
Au      -0.18382936       9.67316967      -0.26833504      -0.01683584       0.26476629      -0.39734908
Si      -0.13086903       0.26616618      -0.24412015      -0.07310289      -0.29524235      -0.02209657
Si       0.40466944       5.98963473       0.76147314      -0.39422853      -0.13097945      -0.74311181
Si       0.43117917       3.19719665       2.70325374      -0.60823122      -0.23324971       0.18834051
Si      -0.11997929       9.78561837       3.03171703       0.51532081      -0.38740431       0.49527752
Si       3.18859935      -0.00314415       3.11812470       0.00321902       0.08236066      -0.28205927
Si       3.13275627       6.44999536       2.89660701      -0.00112331      -0.08243214       0.54065029
Si       2.44088445       3.43174382       0.24921226       1.14524005      -0.76780314       0.36104588
Si       3.14545514       9.29444940       0.22529510      -0.31298527       0.11774907       0.13165848
24
Lattice="6.002279945560249 -0.008085887761333552 0.0850308835480993 -0.016171775522667103 12.896744860991294 -0.004712265696100102 0.0850308835480993 -0.0023591342911685863 5.961196192153741" Properties=species:S:1:pos:R:3:forces:R:3 energy=-61038.061480390825 free_energy=-61038.061480390825 stress="0.010593702564171274 0.008212919867959096 0.004352067096045401 0.008212919867959096 0.007934718110553662 -0.0006069021836468376 0.004352067096045401 -0.0006069021836468376 0.025163027602156173" pbc="T T T"
Au       1.16406477       4.68919479       4.66916867       0.07661810       0.47839385       0.09561393
Au       1.28915943      11.74630889       4.32936936       0.00798765      -0.29659629      -0.37870653
Au       3.32403744      -0.24393594      -0.13192835       0.16955911       0.27833529      -0.63672264
Au       2.72433514       6.44289889       0.41340553      -0.49936788       0.63877155       0.51045319
Au       1.43150540       1.29576729       1.36614641       0.33698498       0.01622083       0.31623103
Au       1.47328047      11.12964391       1.33338729       0.39223593      -0.02369657      -0.15280709
Au       2.91582458       3.34096048       3.31999653      -0.63825451      -0.57715918      -0.06150336
Au       2.81018726       9.65100710       3.11351403       0.24207039      -0.44159211       0.32637866
Au       4.55602510       4.60392287       1.69968464       0.87565886       0.25726073      -0.11531295
Au       4.76173889      11.43843453       1.76761259      -0.50524157       0.43646173       0.56542878
Au       4.58491156       1.96184961       1.04652427      -0.35070670       0.28837724       0.36262788
Au       5.07114835       7.73432357       1.70458680      -0.10475857       0.71244343       0.20880417
Au       4.85921876       1.77885154       4.14997192       0.73246461      -0.59178464      -0.16854533
Au       4.45001803       7.81268661       4.53249257      -0.45013023       1.32599889      -0.78668481
Au       4.64248950       5.23731575       4.78282773      -0.54075982      -1.07513096      -0.34624763
Au      -0.18343559       9.67422167      -0.26919752      -0.02210455       0.25606825      -0.39208758
Si      -0.12995749       0.26249110      -0.24534358      -0.08485489      -0.26528848       0.00730168
Si       0.40259652       5.99174192       0.76034719      -0.37645964      -0.14122967      -0.74911430
Si       0.43030807       3.19749743       2.70902327      -0.60714390      -0.23247349       0.16218493
Si      -0.11340302       9.78412109       3.03376529       0.49745318      -0.37243098       0.46995061
Si       3.18973246      -0.00192984       3.12107168      -0.00009076       0.07635199      -0.29386835
Si       3.13218136       6.45181701       2.89870576      -0.00005168      -0.09253272       0.53398624
Si       2.43821891       3.43157639       0.24570173       1.16640023      -0.78151843       0.38127454
Si       3.14415797       9.29096152       0.22471981      -0.31750861       0.12674999       0.14136465
24
Lattice="6.002279945560249 -0.008085887761333552 0.0850308835480993 -0.016171775522667103 12.896744860991294 -0.004712265696100102 0.0850308835480993 -0.0023591342911685863 5.961196192153741" Properties=species:S:1:pos:R:3:forces:R:3 energy=-61038.08433128648 free_energy=-61038.08433128648 stress="0.010810387761358344 0.008097232008443964 0.004334622101356611 0.008097232008443964 0.008274436428177458 -0.0006491374339460123 0.004334622101356611 -0.0006491374339460123 0.0252842244073625" pbc="T T T"
Au       1.16339715       4.69027381       4.67042479       0.09361695       0.47939864       0.07636588
Au       1.28741474      11.74664363       4.32884770       0.03660865      -0.30089183      -0.38871069
Au       3.32631053      -0.24303237      -0.13307451       0.15079237       0.26979408      -0.63481848
Au       2.72340175       6.44397944       0.41622441      -0.49475455       0.63191648       0.50320705
Au       1.43085264       1.29609105       1.36590070       0.34047551       0.01759946       0.31390367
Au       1.47299823      11.12994004       1.33312020       0.40348039      -0.02202767      -0.15177556
Au       2.91562859       3.33850412       3.31863571      -0.64356666      -0.56266484      -0.05975167
Au       2.81055837       9.65027484       3.11442277       0.22802163      -0.43146222       0.31735923
Au       4.55763479       4.60521539       1.69932353       0.86027261       0.23071126      -0.10110529
Au       4.76109426      11.43863908       1.76880895      -0.49418583       0.41395481       0.57883991
Au       4.58642816       1.96014342       1.04709835      -0.35168475       0.30106178       0.36012259
Au       5.07163467       7.73453186       1.70304927      -0.11380705       0.73075020       0.22204561
Au       4.86146517       1.77768450       4.14871097       0.71990066      -0.59068215      -0.15434538
Au       4.44777847       7.81446095       4.53197129      -0.43450461       1.29314251      -0.78161716
Au       4.64081612       5.23541379       4.78323335      -0.55361122      -1.04336189      -0.34801630
Au      -0.18306894       9.67521564      -0.27002077      -0.02702332       0.24784149      -0.38660881
Si      -0.12913371       0.25897447      -0.24648351      -0.09583556      -0.23677495       0.03534084
Si       0.40054002       5.99366392       0.75905499      -0.35940140      -0.15006501      -0.75445423
Si       0.42929948       3.19770349       2.71446227      -0.60461213      -0.23084907       0.13782913
Si      -0.10710297       9.78260334       3.03582884       0.48021034      -0.35802354       0.44542974
Si       3.19079039      -0.00077151       3.12372868      -0.00352421       0.07059195      -0.30454511
Si       3.13164456       6.45348806       2.90083703       0.00059341      -0.10230034       0.52662466
Si       2.43610530       3.43116872       0.24254669       1.18411873      -0.79263922       0.39819317
Si       3.14284473       9.28774575       0.22422814      -0.32157944       0.13497957       0.15048718
24
Lattice="6.002279945560249 -0.008085887761333552 0.0850308835480993 -0.016171775522667103 12.896744860991294 -0.004712265696100102 0.0850308835480993 -0.0023591342911685863 5.961196192153741" Properties=species:S:1:pos:R:3:forces:R:3 energy=-61038.10791117512 free_energy=-61038.10791117512 stress="0.011031663746621413 0.007977871518468037 0.004323604209974218 0.007977871518468037 0.008612318430570857 -0.0006968816299363839 0.004323604209974218 -0.0006968816299363839 0.02540633937018403" pbc="T T T"
Au       1.16273382       4.69137483       4.67168442       0.11194635       0.47910836       0.05823446
Au       1.28567172      11.74696458       4.32830822       0.06571791      -0.30509044      -0.39922007
Au       3.32859054      -0.24211643      -0.13424979       0.13210277       0.26118114      -0.63291124
Au       2.72244566       6.44508896       0.41906636      -0.49024972       0.62476701       0.49652604
Au       1.43021549       1.29641563       1.36566939       0.34352715       0.01872380       0.31146138
Au       1.47273450      11.13023516       1.33284615       0.41429574      -0.02035979      -0.15063759
Au       2.91540310       3.33602195       3.31727214      -0.64890710      -0.54826872      -0.05810976
Au       2.81093994       9.64952280       3.11534607       0.21368156      -0.42116495       0.30808912
Au       4.55928392       4.60651849       1.69895779       0.84457988       0.20452946      -0.08647263
Au       4.76042697      11.43886261       1.77003187      -0.48235824       0.39081128       0.59221608
Au       4.58792863       1.95845103       1.04768894      -0.35208121       0.31312463       0.35747307
Au       5.07211577       7.73477367       1.70152193      -0.12271130       0.74866976       0.23506105
Au       4.86374459       1.77649038       4.14744294       0.70644993      -0.59010134      -0.13952143
Au       4.44551899       7.81629459       4.53141417      -0.41848329       1.25998299      -0.77588540
Au       4.63911735       5.23346399       4.78362302      -0.56660712      -1.01124238      -0.34972094
Au      -0.18270354       9.67622097      -0.27086176      -0.03195933       0.23951754      -0.38057366
Si      -0.12834075       0.25538169      -0.24761207      -0.10676095      -0.20784309       0.06385078
Si       0.39836793       5.99553765       0.75752016      -0.34196880      -0.15811153      -0.75948048
Si       0.42809643       3.19783530       2.71994560      -0.60052562      -0.22826382       0.11354737
Si      -0.10064847       9.78097046       3.03803564       0.46244170      -0.34328932       0.42011826
Si       3.19184718       0.00040952       3.12628774      -0.00730193       0.06469461      -0.31485601
Si       3.13110796       6.45512621       2.90313768       0.00088343      -0.11240015       0.51812228
Si       2.43437252       3.43050613       0.23951970       1.19976570      -0.80199135       0.41305132
Si       3.14142807       9.28457339       0.22378487      -0.32547749       0.14301658       0.15963800
23
Lattice="6.1243058174128215 0.01676296259261297 0.05520079716741713 0.03352592518522594 13.017576561881883 0.04622829435478359 0.05520079716741713 0.023114147177391794 6.100119869558153" Properties=species:S:1:pos:R:3:forces:R:3 energy=-57298.66487256298 free_energy=-57298.66487256298 stress="0.047625753658010764 0.0064638296110041404 -0.004115182431323943 0.0064638296110041404 0.025861745547322953 0.0036193773191162387 -0.004115182431323943 0.0036193773191162387 0.036955844011777934" pbc="T T T"
Au       1.69829353      11.32494974       1.59727792      -0.90199595       1.02027775      -0.09903324
Au       2.87627447       3.31499634       2.94061518       0.04088465       0.37414539       0.38104880
Au       2.71536796       9.29451796       2.88292648      -0.69850008      -0.56118415       0.34364851
Au       4.40465005       5.34948227       1.72771167      -0.45390692      -0.10586569      -0.72481249
Au       4.52557437      11.23574786       1.64062515       0.34701202       0.32516330      -0.34665901
Au       4.32059756       1.50533817       1.34303678       0.21740400      -0.72005621      -0.04991411
Au       4.97252040       8.16116492       1.75110083       0.36261811       0.06710245       0.09778394
Au       0.16752565       0.17025045       2.96425112       0.05848745      -0.62884761       0.31642181
Au       0.22936864       6.27992971       3.29409760       1.41419570       0.30500945       0.52500641
Au       4.86581945       1.98438211       4.58419122       0.12995461      -0.04907876      -0.05538233
Au       4.46048507       8.36682875       4.67889556      -0.91364254       0.32240939      -0.07087837
Au       4.89162690       4.74860757       4.99894144      -0.76756145      -0.01406728       0.26935571
Au       4.11982128      11.65431981       4.46833582       0.34018652      -0.01662552       0.62112145
Au       0.64974860       2.95949574       0.18095205       0.55207550      -0.17254699       0.22907449
Au       0.13514215       9.96715154      -0.18036866       0.29607693       0.14578952      -0.77314923
Si       0.14401729      -0.02335202       0.20569018      -0.49942419       0.00390036      -0.12252078
Si      -0.44954603       6.82297957      -0.24686871       0.23198935      -1.02658467       0.36326371
Si       0.65954613       2.44481472       2.59286465      -0.00548262       0.78585742       0.26888057
Si      -0.03740583       9.96311094       3.25914384       0.59391095      -0.09896742      -0.02520761
Si       2.88740358       0.12631121       2.95256841       0.05202884       0.02310033      -0.10874327
Si       2.84326008       6.09033453       3.46375144      -0.09786904       0.07652374      -0.03848016
Si       3.23129685       3.33906765       0.23494367      -0.54844561       0.30792380      -0.29675493
Si       2.90511761      10.04281624      -0.05275332       0.25000430      -0.36337838      -0.70406960
23
Lattice="6.1243058174128215 0.01676296259261297 0.05520079716741713 0.03352592518522594 13.017576561881883 0.04622829435478359 0.05520079716741713 0.023114147177391794 6.100119869558153" Properties=species:S:1:pos:R:3:forces:R:3 energy=-57298.689063075064 free_energy=-57298.689063075064 stress="0.0478911012088034 0.006464747768619339 -0.004174862676311906 0.006464747768619339 0.026464056942893797 0.0036542673084938174 -0.004174862676311906 0.0036542673084938174 0.03736901493861769" pbc="T T T"
Au       1.69950314      11.32661854       1.59703748      -0.90687282       1.00256054      -0.12823274
Au       2.87501899       3.31413235       2.94044359       0.05536794       0.38090790       0.38449819
Au       2.71322357       9.29376940       2.88205312      -0.67558384      -0.57163645       0.35581677
Au       4.40374487       5.35126321       1.72818812      -0.45547093      -0.11036255      -0.71738226
Au       4.52484600      11.23616920       1.64020799       0.36107750       0.31073530      -0.34111751
Au       4.32038235       1.50437157       1.34314630       0.21008175      -0.70181963      -0.05984114
Au       4.97335362       8.15976063       1.75043877       0.35602451       0.08713623       0.12034923
Au       0.16789382       0.17060077       2.96465064       0.06870836      -0.59537056       0.30479631
Au       0.23220864       6.28038827       3.29490906       1.39855954       0.30414608       0.51750856
Au       4.86587605       1.98444123       4.58473896       0.12861995      -0.04370824      -0.04976190
Au       4.46096253       8.36513965       4.68149185      -0.93986188       0.33686028      -0.11326892
Au       4.89149804       4.74853772       4.99659445      -0.78479479      -0.01986383       0.30328836
Au       4.11900488      11.65534983       4.46874040       0.35646828      -0.01614550       0.62057663
Au       0.65156549       2.95912278       0.18245605       0.52026478      -0.17026745       0.20499303
Au       0.13479700       9.96645862      -0.18211957       0.30720569       0.15905358      -0.75357825
Si       0.14286341      -0.01992892       0.20328247      -0.49488696      -0.00348770      -0.11469331
Si      -0.44680361       6.82500977      -0.24627939       0.23440053      -1.06441537       0.36052086
Si       0.65696502       2.45136716       2.59345149      -0.02871254       0.73870236       0.29007983
Si      -0.03211840       9.96167545       3.26001460       0.57953642      -0.09879772      -0.04069028
Si       2.88859351       0.12498348       2.95297550       0.03968729       0.03138083      -0.11948379
Si       2.83823759       6.09018195       3.46408232      -0.07754190       0.07453962      -0.04734249
Si       3.22081548       3.33724454       0.23690756      -0.47704402       0.31774130      -0.30651458
Si       2.90768234      10.04283745      -0.05780882       0.22476764      -0.34788851      -0.67052108
23
Lattice="6.1243058174128215 0.01676296259261297 0.05520079716741713 0.03352592518522594 13.017576561881883 0.04622829435478359 0.05520079716741713 0.023114147177391794 6.100119869558153" Properties=species:S:1:pos:R:3:forces:R:3 energy=-57298.71268908699 free_energy=-57298.71268908699 stress="0.04814451271059845 0.00644730277393055 -0.004227197660378276 0.00644730277393055 0.027070040968925433 0.0036845665097953993 -0.004227197660378276 0.0036845665097953993 0.037785858495918236" pbc="T T T"
Au       1.70067116      11.32833331       1.59679116      -0.91058035       0.98384754      -0.15761557
Au       2.87376604       3.31328582       2.94028964       0.07032224       0.38751230       0.38785014
Au       2.71104819       9.29299462       2.88119607      -0.65316613      -0.58123746       0.36727926
Au       4.40281880       5.35303909       1.72863166      -0.45668629      -0.11473394      -0.70928483
Au       4.52413420      11.23660478       1.63977519       0.37452334       0.29606407      -0.33574776
Au       4.32017677       1.50337277       1.34325308       0.20193598      -0.68249522      -0.07012992
Au       4.97420317       8.15836033       1.74978222       0.34971142       0.10721037       0.14239901
Au       0.16826515       0.17092380       2.96506413       0.07879788      -0.56107102       0.29322660
Au       0.23511277       6.28086078       3.29574425       1.38166379       0.30326367       0.50987547
Au       4.86593856       1.98449835       4.58528442       0.12747967      -0.03857066      -0.04433199
Au       4.46139688       8.36346600       4.68408295      -0.96357696       0.34871229      -0.15363807
Au       4.89133318       4.74846696       4.99426138      -0.80105496      -0.02555137       0.33488439
Au       4.11820482      11.65637911       4.46917344       0.37301925      -0.01492268       0.61965823
Au       0.65340623       2.95874200       0.18396945       0.48609379      -0.16833938       0.18060611
Au       0.13446594       9.96577299      -0.18390504       0.31825243       0.17210553      -0.73417105
Si       0.14155037      -0.01650694       0.20083787      -0.49023301      -0.01079221      -0.10705379
Si      -0.44398580       6.82669763      -0.24557413       0.23563929      -1.09828014       0.35685601
Si       0.65437467       2.45815717       2.59413162      -0.05258214       0.69079088       0.31140739
Si      -0.02664459       9.96020819       3.26087228       0.56495004      -0.09896999      -0.05609684
Si       2.88979619       0.12366584       2.95334417       0.02726038       0.03955385      -0.13026751
Si       2.83319015       6.09005334       3.46439797      -0.05657198       0.07252542      -0.05611690
Si       3.21018069       3.33552362       0.23877288      -0.40382183       0.32533737      -0.31415847
Si       2.91031937      10.04274676      -0.06307997       0.19862389      -0.33195873      -0.63542989
23
Lattice="6.1243058174128215 0.01676296259261297 0.05520079716741713 0.03352592518522594 13.017576561881883 0.04622829435478359 0.05520079716741713 0.023114147177391794 6.100119869558153" Properties=species:S:1:pos:R:3:forces:R:3 energy=-57298.734277102325 free_energy=-57298.734277102325 stress="0.04836946132632231 0.006415167257398568 -0.00426943291067745 0.006415167257398568 0.027639298690349094 0.003706602292560187 -0.00426943291067745 0.003706602292560187 0.0381788299552236" pbc="T T T"
Au       1.70171743      11.32997577       1.59655448      -0.91292623       0.96545798      -0.18510940
Au       2.87260213       3.31251504       2.94016401       0.08465897       0.39348446       0.39084033
Au       2.70899184       9.29224624       2.88041456      -0.63272458      -0.58937423       0.37727468
Au       4.40193521       5.35468808       1.72901230      -0.45744939      -0.11868521      -0.70114189
Au       4.52348831      11.23702412       1.63935663       0.38644580       0.28213641      -0.33090715
Au       4.31999453       1.50241109       1.34334933       0.19362078      -0.66348988      -0.08002790
Au       4.97501058       8.15706085       1.74917717       0.34412442       0.12593649       0.16237828
Au       0.16861467       0.17119896       2.96546275       0.08804280      -0.52845246       0.28254290
Au       0.23788137       6.28131483       3.29654562       1.36474104       0.30243141       0.50264193
Au       4.86600263       1.98454979       4.58579049       0.12662992      -0.03400181      -0.03944946
Au       4.46175730       8.36192296       4.68648955      -0.98306618       0.35710669      -0.18915375
Au       4.89114288       4.74839988       4.99210344      -0.81532484      -0.03080233       0.36214939
Au       4.11747667      11.65733722       4.46960524       0.38864513      -0.01306249       0.61840816
Au       0.65514321       2.95837959       0.18538749       0.45201511      -0.16689365       0.15768833
Au       0.13417215       9.96514221      -0.18560190       0.32846589       0.18403262      -0.71628569
Si       0.14016959      -0.01332279       0.19852626      -0.48576443      -0.01752901      -0.10011850
Si      -0.44128519       6.82791668      -0.24480239       0.23546008      -1.12581871       0.35245608
Si       0.65194480       2.46470434       2.59486533      -0.07533924       0.64566854       0.33130644
Si      -0.02136395       9.95880958       3.26165318       0.55112393      -0.09947521      -0.07034333
Si       2.89092528       0.12245116       2.95364569       0.01565648       0.04701751      -0.14030459
Si       2.82847019       6.08995687       3.46467396      -0.03644719       0.07062049      -0.06417885
Si       3.20014433       3.33402519       0.24040942      -0.33405186       0.33043895      -0.31933436
Si       2.91283968      10.04255553      -0.06819449       0.17346333      -0.31674680      -0.60133192
23
Lattice="6.1243058174128215 0.01676296259261297 0.05520079716741713 0.03352592518522594 13.017576561881883 0.04622829435478359 0.05520079716741713 0.023114147177391794 6.100119869558153" Properties=species:S:1:pos:R:3:forces:R:3 energy=-57298.75544429361 free_energy=-57298.75544429361 stress="0.048582473893048594 0.006366504903792998 -0.0043034047424398295 0.006366504903792998 0.028211310884618354 0.0037231291296337767 -0.0043034047424398295 0.0037231291296337767 0.03857731036022016" pbc="T T T"
Au       1.70272184      11.33166250       1.59630932      -0.91422181       0.94620427      -0.21262098
Au       2.87144210       3.31176230       2.94005631       0.09934794       0.39924270       0.39366443
Au       2.70690648       9.29147084       2.87965035      -0.61268386      -0.59671113       0.38661935
Au       4.40103065       5.35633164       1.72936079      -0.45783094      -0.12254289      -0.69243716
Au       4.52286015      11.23745639       1.63892289       0.39779748       0.26799740      -0.32622594
Au       4.31982117       1.50141897       1.34344191       0.18461523      -0.64357335      -0.09018016
Au       4.97583376       8.15576714       1.74857957       0.33886188       0.14465104       0.18172866
Au       0.16896822       0.17144990       2.96587432       0.09711031      -0.49535928       0.27197849
Au       0.24071257       6.28178276       3.29737004       1.34661348       0.30156675       0.49528960
Au       4.86607251       1.98459966       4.58629475       0.12598585      -0.02967696      -0.03476131
Au       4.46207264       8.36039630       4.68888748      -0.99985805       0.36280914      -0.22250841
Au       4.89091519       4.74833138       4.98996211      -0.82875859      -0.03602733       0.38735495
Au       4.11676634      11.65829472       4.47006540       0.40446641      -0.01044665       0.61674568
Au       0.65690091       2.95800952       0.18681277       0.41566356      -0.16583461       0.13464147
Au       0.13389342       9.96451987      -0.18733160       0.33857315       0.19572497      -0.69861064
Si       0.13863257      -0.01014427       0.19618245      -0.48114930      -0.02420514      -0.09337475
Si      -0.43850884       6.82877365      -0.24391730       0.23383746      -1.14931448       0.34703105
Si       0.64949071       2.47145916       2.59570559      -0.09848765       0.60036236       0.35114250
Si      -0.01590605       9.95737898       3.26241145       0.53705074      -0.10033293      -0.08444917
Si       2.89205941       0.12125160       2.95390208       0.00406928       0.05429861      -0.15028921
Si       2.82373851       6.08988311       3.46492930      -0.01574029       0.06868085      -0.07210299
Si       3.19000055       3.33263304       0.24194325      -0.26285570       0.33375002      -0.32267422
Si       2.91541578      10.04226242      -0.07350241       0.14759315      -0.30126336      -0.56596177
21